[Molden Format]
[Molpro variables]
_NUMVAR=  891.0000000000000    
_AVOGAD= 0.6022136736000000E+24
_BOLTZ= 0.1380658000000000E-22
_CLIGHT=  29979245800.00000    
_EV= 0.3674932379085202E-01
_ENULL= 0.8854187817000000E-11
_KJOULE= 0.3808798324128737E-03
_KJOULE/MOL= 0.3808798324128737E-03
_CM= 0.4556335267302901E-05
_CM-1= 0.4556335267302901E-05
_DEB2SI= 0.3335641000000000E-29
_AMU2AU=  1822.888390000000    
_KCAL= 0.1593601117815568E-02
_KCAL/MOL= 0.1593601117815568E-02
_KELVIN= 0.3166811411060229E-05
_JOULE= 0.4359748200000000E-17
_HERTZ= 0.1519829846004524E-15
_HZ= 0.1519829846004524E-15
_JPCAL=  4.184000000000000    
_PLANCK= 0.6626075540000000E-33
_TOA= 0.5291772109200000    
_TOANG= 0.5291772109200000    
_TORAD= 0.1745329251994330E-01
_TOCM=  219474.6306700000    
_TODEBYE=  2.541580000000000    
_TOE= 0.4803242000000000E-09
_TOEV=  27.21138505000000    
_TOHERTZ=  6579683920729000.    
_TOHZ=  6579683920729000.    
_TOK=  315775.0400000000    
_TOKCAL=  627.5096000000000    
_TOKELVIN=  315775.0400000000    
_TOKJ=  2625.500000000000    
_TOKJOULE=  2625.500000000000    
_TOKG= 0.1660565586000000E-26
_ANG=  1.889726124565062    
_ANGSTROM=  1.889726124565062    
_RPAREF=  0.000000000000000    
_RPADISS=  0.000000000000000    
_IGNORE_UNDEF=  2.000000000000000    
_STRICTCHECK=  0.000000000000000    
_SEW_ONEEL=  0.000000000000000    
_CPPDONE=FALSE
_DKROLL_DONE=  0.000000000000000    
_FOCKDONE=TRUE
_GRADONE=FALSE
_HESSDONE=FALSE
_INTDONE=TRUE
_SCFDONE=TRUE
_MODUL_BLOCK=FALSE
_MODUL_CUDA=FALSE
_MODUL_SLATER=FALSE
_MODUL_MRCC=FALSE
_MODUL_NBO6=FALSE
_MODUL_NECI=TRUE
_MODUL_AIMS=TRUE
_MRCC_EXEC=
_FITC_AO_SAVED=FALSE
_FITC_MO_SAVED=FALSE
_SHARED_FS=TRUE
_LSTYP=SEWARD
_INTYP=INTS
_GEOMTYP=ZMAT
_GRADTYP=ALASKA
_DIRECT=FALSE
_DKHO= -1.000000000000000    
_SYNCM=  0.000000000000000    
_BASIS=6-31G
_ZORIENT=  1.000000000000000    
_NELEC=  14.00000000000000    
!SPIN=  0.000000000000000    
_QSDSTEP=  0.000000000000000    
_QSDIRC=  0.000000000000000    
_PROGRAM=HF-SCF
_CPUSTEP= 0.7000000000000001E-01
_SYSSTEP= 0.9999999999999981E-02
_WALLSTEP= 0.1700000000000000    
!DFSCF=  0.000000000000000    
!SCSGRD=  0.000000000000000    
_BASINP=  610.0000000000000    
_CARTESIAN=TRUE
_CPUTOT= 0.3900000000000000    
_CPUSORT= 0.3000000000000003E-01
_SYSSORT= 0.1000000000000001E-01
_WALLSORT= 0.3999999910593033E-01
_DFTEXFAC=  1.000000000000000    
_DMX=  0.000000000000000    
_DMY=  0.000000000000000    
_DMZ= 0.3524070699046105    
_DMX_SCF=  0.000000000000000    
_DMY_SCF=  0.000000000000000    
_DMZ_SCF= 0.3524070699046105    
_EHOMO=-0.4942509604559694    
_ELUMO= 0.3073484679075369    
_EIGS= -20.68274329043594    
_ENERGY= -112.0138661439538    
_ENERGY_METHOD=HF
_ENERGY_BASIS=6-31G
_GEOMETRY_METHOD=
_GEOMETRY_BASIS=
_ENUC=  32.00000000000000    
_GRADEXFAC=  9999.000000000000    
_GRADMETHOD=  1.000000000000000    
_NMRMETHOD=  0.000000000000000    
_NMRMAGNET=  0.000000000000000    
!GRID_FREEZE= -1.000000000000000    
_ITERATIONS=  9.000000000000000    
_LASTNELEC=  14.00000000000000    
_LASTSPIN=  0.000000000000000    
_LASTSYM=  1.000000000000000    
_MPP_PROG=  0.000000000000000    
_RS2PHASE=  0.000000000000000    
_NPROC_MPP=  1.000000000000000    
_NPROC_MPPX=  1.000000000000000    
_NPROC_SMP=  1.000000000000000    
_NUMSTEP=  0.000000000000000    
_ORBITAL=  2100.200000000000    
_PI=  3.141592653589793    
_SEIG_MIN= 0.1093271936048459E-01
_SEWPROP=TRUE
_STATUS=  1.000000000000000    
_SYSTOT= 0.1600000000000000    
_VERSION=  2015001.000000000    
_WALLTOT=  1.010000000000000    
_DATE=08-Mar-22
_LASTORB=RHF
_MACHINE= 64 bit serial version
_OUTPUT=/home/jeremy/newCalcsForXray/CO/3morepoints/1.5/CO.xml
_PGROUP=C2v
_TIME=16:04:17
_LIBMOL=/shared/apps/quantum/molpro2015.1/lib/
_VIGRDC=  0.000000000000000    
!VIBCNT=  0.000000000000000    
!RGHFCNT=  0.000000000000000    
!SURFREC=  0.000000000000000    
!ROTREC=  0.000000000000000    
!POLYREC=  0.000000000000000    
!DIPREC=  0.000000000000000    
!DIP4DREC=  0.000000000000000    
!DIPROT=  0.000000000000000    
!DIP4DROT=  0.000000000000000    
!PTREC=  0.000000000000000    
!PT4DREC=  0.000000000000000    
!VSCFREC=  0.000000000000000    
!VCIREC=  0.000000000000000    
!PVCIREC=  0.000000000000000    
!VMP2REC=  0.000000000000000    
!VMCSCFREC=  0.000000000000000    
!VMRCIREC=  0.000000000000000    
!VIBSTATEREC=  0.000000000000000    
!VIBSTATECNT=  0.000000000000000    
!VIBINFO=  0.000000000000000    
!GAREC=  0.000000000000000    
!SCFORB=  21002.00000000000    
!NEWMOL= -1.000000000000000    
!NEWSYM= -1.000000000000000    
_SLFILES=slscratch
_NGSSTO=  9.000000000000000    
_SIN=SIN
_COS=COS
_TAN=TAN
_ACOS=ACOS
_ASIN=ASIN
_ATAN=ATAN
_COSH=COSH
_SINH=SINH
_TANH=TANH
_ABS=ABS
_MOD=MOD
_ERF=ERF
_REFC=REFC
_ERFC=ERFC
_HYPOT=HYPOT
_J0=J0
_J1=J1
_JN=JN
_GAMMA=GAMMA
_LGAMMA=LGAMMA
_Y0=Y0
_Y1=Y1
_YN=YN
_EXP=EXP
_LOG=LOG
_LOG10=LOG10
_SQRT=SQRT
_INT=INT
_NINT=NINT
_MAX=MAX
_MIN=MIN
_COSMO=  0.000000000000000    
_COSMOIT=  0.000000000000000    
_COSMOES=  0.000000000000000    
_COSMOEDS=  0.000000000000000    
_COSMOEC=  0.000000000000000    
_COSMOEDCORR=  0.000000000000000    
_FEPSI=  1.000000000000000    
_SL_IsMM=  0.000000000000000    
_SL_NSYM=  4.000000000000000    
_SL_System_BitSw=  0.000000000000000    
_SL_Unique_atoms=  0.000000000000000    
_SL_GRAD=  0.000000000000000    
_SL_MAXUPD_Hess=  5.000000000000000    
_SL_N_PRINT_COD=  5.000000000000000    
_SL_PRINT_CODES=  0.000000000000000    
_SL_BasType=  0.000000000000000    
_SL_Energy_Pred=  0.000000000000000    
_SL_New_Coords=  0.000000000000000    
_SL_Total_Nuclea=  0.000000000000000    
_SL_Highest_Mltp=  0.000000000000000    
_SL_Ref_Geom=  0.000000000000000    
_SL_Symmetry_ope=  1.000000000000000    
_SL_agrad=  0.000000000000000    
_SL_GrdMax=  0.000000000000000    
_SL_GrdNorm=  0.000000000000000    
_SL_GrdRMS=  0.000000000000000    
_SL_Hss_Q=  0.000000000000000    
_SL_Hss_X=  0.000000000000000    
_SL_BMxOld=  0.000000000000000    
_SL_KtB=  0.000000000000000    
_SL_TROld=  0.000000000000000    
_SL_No_of_Intern=  0.000000000000000    
_SL_Hess=  0.000000000000000    
_SL_K=  0.000000000000000    
!LATTICE= -1.000000000000000    
!NEWLATTICE=  0.000000000000000    
!LATGRAD_VAR=FALSE
!SEW_LATTICE=  1.000000000000000    
!LOCAL=  0.000000000000000    
!SAVEDOM= -1.000000000000000    
!RESTDOM= -1.000000000000000    
!SAVEDOM_HF= -1.000000000000000    
!RESTDOM_HF= -1.000000000000000    
!HESSREC=  0.000000000000000    
!FREQREC=  0.000000000000000    
!NMODREC=  0.000000000000000    
!GTASKS=  0.000000000000000    
!HTASKS=  0.000000000000000    
!SAVEDOM_EOM= -1.000000000000000    
!RESTDOM_EOM= -1.000000000000000    
!GRADSTATE= -1.000000000000000    
!THRCHG= 0.1000000000000000    
!DEBUG= -1.000000000000000    
!CFIT_CPHF=  0.000000000000000    
!RDOMAUX_CPHF=  3.000000000000000    
!THRAO_CPHF= 0.1000000000000000E-09
!THRMO_CPHF= 0.1000000000000000E-08
!THROV_CPHF= 0.1000000000000000E-11
!THRSW_CPHF= 0.1000000000000000E-09
!THRPROD_CPHF= 0.1000000000000000E-08
!THRAOPR_CPHF= 0.1000000000000000E-11
!CFIT_SCFGRD=  0.000000000000000    
!RDOMAUX_SCFGRD=  5.000000000000000    
!THRAO_SCFGRD= 0.1000000000000000E-09
!THRMO_SCFGRD= 0.1000000000000000E-08
!THROV_SCFGRD= 0.1000000000000000E-11
!THRSW_SCFGRD= 0.1000000000000000E-09
!THRPROD_SCFGRD= 0.1000000000000000E-08
!THRAOPR_SCFGRD= 0.1000000000000000E-11
!LOCFIT_SCF=  0.000000000000000    
!LOCFIT_MP2= -1.000000000000000    
_RIDOM=  0.000000000000000    
!CC2_METHOD=  0.000000000000000    
_BASIS2006=FALSE
_SVDDEL= -1.000000000000000    
_SVDDELA= -1.000000000000000    
_SVDDELP= -1.000000000000000    
_SVDDELF= -1.000000000000000    
_SVDDELS= -1.000000000000000    
_SVDDEL_ABS= -1.000000000000000    
_SVDDELA_ABS= -1.000000000000000    
_SVDDELP_ABS= -1.000000000000000    
_SVDDELF_ABS= -1.000000000000000    
_SVDDELS_ABS= -1.000000000000000    
_MAXBASIS=  0.000000000000000    
!OPT_CONICAL=  0.000000000000000    
!CLEARSP_JGRID=  0.000000000000000    
_GRDHYBR=  0.000000000000000    
_STATEGRAD=  1.000000000000000    
_4EXT_NDISKS=  1.000000000000000    
!ZMP=  0.000000000000000    
_MAXIT_ZMP=  500.0000000000000    
_MAXDIS_ZMP=  100.0000000000000    
_ACCU_ZMP=  14.00000000000000    
_SHIFTA_ZMP= -100.0000000000000    
!EMBEDFLAG=  1.000000000000000    
!EMBED=FALSE
!EMBED_F12=FALSE
!EMBEDNUC=  0.000000000000000    
_EMBEDENERGY=  0.000000000000000    
_KSPACETIME=  0.000000000000000    
_RSPACETIME=  0.000000000000000    
!EMBED_DFC=FALSE
!NUM_VOIDS=  0.000000000000000    
_IBODY=  0.000000000000000    
_EMBE_TOTAL=  0.000000000000000    
_EMBE_HF=  0.000000000000000    
_EMBE_CORR=  0.000000000000000    
!EMBED_PROJ=FALSE
!EMBED_TRUNC=  0.000000000000000    
!EMB_PROJ_ZMU=  1000000.000000000    
!CORRECTION=  0.000000000000000    
!CORRECTION_HF=  0.000000000000000    
!EMBED_ENERGY=  0.000000000000000    
!EMBED_NAXC=FALSE
!EMBED_AORB=  0.000000000000000    
!EMBED_NACORR=  0.000000000000000    
!EMBED_MP2=FALSE
!EMBED_TRUNC_PERTURBATION=FALSE
!EMBED_FROZEN=  0.000000000000000    
_CHANGE_BASIS=FALSE
_RESTORE_BASIS=FALSE
_FIX_EMBED_GUESS=FALSE
!EDFT=  0.000000000000000    
_IFASTLATGRAD=  0.000000000000000    
_SINDEX=  0.000000000000000    
_AVDOM_OSV=  0.000000000000000    
_AVDOM_PNO=  0.000000000000000    
_AVDOM_PAO=  0.000000000000000    
_AVDOM_LMO=  0.000000000000000    
_CC2OSV_FLAG=  0.000000000000000    
_TMADC2_FLAG=FALSE
_PROPADC2_FLAG=FALSE
_LEN_VirQ=  0.000000000000000    
_GRDCC2LR_FLAG=FALSE
_GRDADC2_FLAG=FALSE
R1=  1.500000000000000    
GX1=  0.000000000000000    
GY1=  0.000000000000000    
GZ1=-0.8567924770799418    
GX2=  0.000000000000000    
GY2=  0.000000000000000    
GZ2= 0.6432075229200582    
[Atoms] Angs
C     1    6         0.0000000000        0.0000000000       -0.4533950534
O     2    8         0.0000000000        0.0000000000        0.3403707630
[GTO]
   1 0
 s    6  1.00
  0.3047524900D+04  0.1834737091D-02
  0.4573695200D+03  0.1403732293D-01
  0.1039486800D+03  0.6884262165D-01
  0.2921015500D+02  0.2321844388D+00
  0.9286663000D+01  0.4679413476D+00
  0.3163927000D+01  0.3623119882D+00
 s    3  1.00
  0.7868272300D+01 -0.1193324245D+00
  0.1881288500D+01 -0.1608541561D+00
  0.5442492600D+00  0.1143456443D+01
 s    1  1.00
  0.1687144800D+00  0.1000000000D+01
 p    3  1.00
  0.7868272300D+01  0.6899906693D-01
  0.1881288500D+01  0.3164239597D+00
  0.5442492600D+00  0.7443082892D+00
 p    1  1.00
  0.1687144800D+00  0.1000000000D+01
  
   2 0
 s    6  1.00
  0.5484671700D+04  0.1831074396D-02
  0.8252349500D+03  0.1395017197D-01
  0.1880469600D+03  0.6844507786D-01
  0.5296450000D+02  0.2327143395D+00
  0.1689757000D+02  0.4701928990D+00
  0.5799635300D+01  0.3585208493D+00
 s    3  1.00
  0.1553961600D+02 -0.1107775519D+00
  0.3599933600D+01 -0.1480262626D+00
  0.1013761800D+01  0.1130767020D+01
 s    1  1.00
  0.2700058200D+00  0.1000000000D+01
 p    3  1.00
  0.1553961600D+02  0.7087426737D-01
  0.3599933600D+01  0.3397528370D+00
  0.1013761800D+01  0.7271585736D+00
 p    1  1.00
  0.2700058200D+00  0.1000000000D+01
 
 
[MO]
 Sym=      1.1
 Ene=     -20.6827
 Spin= Alpha
 Occup=    2.000000
1 0.000047939185926
2 -0.000386047760380
3 0.009946695655104
4 0.0
5 0.0
6 -0.001814979741421
7 0.0
8 0.0
9 0.004745634211110
10 0.99542541230293
11 0.026966876673655
12 -0.017333144655020
13 0.0
14 0.0
15 -0.005332541854712
16 0.0
17 0.0
18 0.004250295668551
 Sym=      2.1
 Ene=     -11.3221
 Spin= Alpha
 Occup=    2.000000
1 0.99540651138675
2 0.033141077389698
3 0.009212825528583
4 0.0
5 0.0
6 0.011918264962748
7 0.0
8 0.0
9 0.002856128560362
10 -0.006875925663906
11 0.005694035531016
12 -0.024555110159235
13 0.0
14 0.0
15 -0.006665889985376
16 0.0
17 0.0
18 0.013188286268961
 Sym=      3.1
 Ene=      -1.7745
 Spin= Alpha
 Occup=    2.000000
1 -0.19302748255808
2 0.28981217212305
3 0.097338062706323
4 0.0
5 0.0
6 0.29816635855023
7 0.0
8 0.0
9 -0.013186222304889
10 -0.22165097969460
11 0.46509714872877
12 0.10642388432262
13 0.0
14 0.0
15 -0.28275191713742
16 0.0
17 0.0
18 0.067718472775862
 Sym=      1.3
 Ene=      -0.8384
 Spin= Alpha
 Occup=    2.000000
1 0.0
2 0.0
3 0.0
4 0.0
5 0.38416841350040
6 0.0
7 0.0
8 0.027803396540795
9 0.0
10 0.0
11 0.0
12 0.0
13 0.0
14 0.58095795402475
15 0.0
16 0.0
17 0.27877114506604
18 0.0
 Sym=      1.2
 Ene=      -0.8384
 Spin= Alpha
 Occup=    2.000000
1 0.0
2 0.0
3 0.0
4 0.38416841350040
5 0.0
6 0.0
7 0.027803396540794
8 0.0
9 0.0
10 0.0
11 0.0
12 0.0
13 0.58095795402475
14 0.0
15 0.0
16 0.27877114506604
17 0.0
18 0.0
 Sym=      4.1
 Ene=      -0.8017
 Spin= Alpha
 Occup=    2.000000
1 0.099420269193732
2 -0.20944991652629
3 -0.098910401316725
4 0.0
5 0.0
6 -0.22449388233166
7 0.0
8 0.0
9 -0.008712766784629
10 -0.094023427816684
11 0.21719341745269
12 0.60759767696901
13 0.0
14 0.0
15 0.60644744539534
16 0.0
17 0.0
18 0.16839907288055
 Sym=      5.1
 Ene=      -0.4943
 Spin= Alpha
 Occup=    2.000000
1 0.14669549032214
2 -0.26217849608861
3 -0.66440119224837
4 0.0
5 0.0
6 0.42338283236192
7 0.0
8 0.0
9 0.14675505887321
10 -0.047809177345382
11 0.12882035618921
12 0.094289818314543
13 0.0
14 0.0
15 -0.11476920899212
16 0.0
17 0.0
18 0.024948576319372
 Sym=      2.2
 Ene=       0.3073
 Spin= Alpha
 Occup=    0.000000
1 0.0
2 0.0
3 0.0
4 0.27233682244016
5 0.0
6 0.0
7 1.16922109592801
8 0.0
9 0.0
10 0.0
11 0.0
12 0.0
13 -0.35477204555056
14 0.0
15 0.0
16 -0.75375002166156
17 0.0
18 0.0
 Sym=      2.3
 Ene=       0.3073
 Spin= Alpha
 Occup=    0.000000
1 0.0
2 0.0
3 0.0
4 0.0
5 0.27233682244017
6 0.0
7 0.0
8 1.16922109592800
9 0.0
10 0.0
11 0.0
12 0.0
13 0.0
14 -0.35477204555056
15 0.0
16 0.0
17 -0.75375002166155
18 0.0
 Sym=      6.1
 Ene=       0.4194
 Spin= Alpha
 Occup=    0.000000
1 0.037829103981729
2 -0.006482134668898
3 2.85211060180851
4 0.0
5 0.0
6 0.088681041735501
7 0.0
8 0.0
9 2.10730528125610
10 0.092423649023274
11 -0.069159874809318
12 -3.17162323100808
13 0.0
14 0.0
15 -0.065623270387345
16 0.0
17 0.0
18 0.52637093365646
 Sym=      3.2
 Ene=       0.7287
 Spin= Alpha
 Occup=    0.000000
1 0.0
2 0.0
3 0.0
4 1.07231733435028
5 0.0
6 0.0
7 -0.64253246405061
8 0.0
9 0.0
10 0.0
11 0.0
12 0.0
13 0.040890216718463
14 0.0
15 0.0
16 -0.53856998418935
17 0.0
18 0.0
 Sym=      3.3
 Ene=       0.7287
 Spin= Alpha
 Occup=    0.000000
1 0.0
2 0.0
3 0.0
4 0.0
5 1.07231733435028
6 0.0
7 0.0
8 -0.64253246405061
9 0.0
10 0.0
11 0.0
12 0.0
13 0.0
14 0.040890216718466
15 0.0
16 0.0
17 -0.53856998418935
18 0.0
 Sym=      7.1
 Ene=       0.7480
 Spin= Alpha
 Occup=    0.000000
1 0.12422534192377
2 -0.42743666968084
3 1.92930191881479
4 0.0
5 0.0
6 0.69213901440832
7 0.0
8 0.0
9 -0.41128802201641
10 0.019960717593556
11 0.074079307951198
12 -1.31248858999722
13 0.0
14 0.0
15 -0.25639506901231
16 0.0
17 0.0
18 1.15990066720041
 Sym=      8.1
 Ene=       1.0370
 Spin= Alpha
 Occup=    0.000000
1 0.058496824653531
2 1.68729643206323
3 0.098488253968575
4 0.0
5 0.0
6 -0.10532640329658
7 0.0
8 0.0
9 0.25559441510161
10 0.042663833308615
11 -0.16301247023987
12 -1.08428094468939
13 0.0
14 0.0
15 -0.45874307574121
16 0.0
17 0.0
18 1.68857991942145
 Sym=      4.2
 Ene=       1.2791
 Spin= Alpha
 Occup=    0.000000
1 0.0
2 0.0
3 0.0
4 0.42368489662034
5 0.0
6 0.0
7 -0.95682941008334
8 0.0
9 0.0
10 0.0
11 0.0
12 0.0
13 -0.98981271847009
14 0.0
15 0.0
16 1.40879891519732
17 0.0
18 0.0
 Sym=      4.3
 Ene=       1.2791
 Spin= Alpha
 Occup=    0.000000
1 0.0
2 0.0
3 0.0
4 0.0
5 0.42368489662034
6 0.0
7 0.0
8 -0.95682941008335
9 0.0
10 0.0
11 0.0
12 0.0
13 0.0
14 -0.98981271847009
15 0.0
16 0.0
17 1.40879891519732
18 0.0
 Sym=      9.1
 Ene=       1.9687
 Spin= Alpha
 Occup=    0.000000
1 -0.15394505098155
2 -1.32029987890760
3 -3.47601258056701
4 0.0
5 0.0
6 -0.22892504222717
7 0.0
8 0.0
9 -1.87469584044571
10 0.019315645145418
11 -1.84640280849337
12 6.28982516455349
13 0.0
14 0.0
15 -0.30441823557719
16 0.0
17 0.0
18 -1.47713735137651
 Sym=     10.1
 Ene=       2.6525
 Spin= Alpha
 Occup=    0.000000
1 0.11547457543628
2 2.04929046118671
3 0.29300837746267
4 0.0
5 0.0
6 1.70572195800138
7 0.0
8 0.0
9 -0.12112510353669
10 0.017080207823811
11 -1.14919253103407
12 -1.24000136934762
13 0.0
14 0.0
15 1.13689887137566
16 0.0
17 0.0
18 0.72505721560636
