[Molden Format]
[Molpro variables]
_NUMVAR=  891.0000000000000    
_AVOGAD= 0.6022136736000000E+24
_BOLTZ= 0.1380658000000000E-22
_CLIGHT=  29979245800.00000    
_EV= 0.3674932379085202E-01
_ENULL= 0.8854187817000000E-11
_KJOULE= 0.3808798324128737E-03
_KJOULE/MOL= 0.3808798324128737E-03
_CM= 0.4556335267302901E-05
_CM-1= 0.4556335267302901E-05
_DEB2SI= 0.3335641000000000E-29
_AMU2AU=  1822.888390000000    
_KCAL= 0.1593601117815568E-02
_KCAL/MOL= 0.1593601117815568E-02
_KELVIN= 0.3166811411060229E-05
_JOULE= 0.4359748200000000E-17
_HERTZ= 0.1519829846004524E-15
_HZ= 0.1519829846004524E-15
_JPCAL=  4.184000000000000    
_PLANCK= 0.6626075540000000E-33
_TOA= 0.5291772109200000    
_TOANG= 0.5291772109200000    
_TORAD= 0.1745329251994330E-01
_TOCM=  219474.6306700000    
_TODEBYE=  2.541580000000000    
_TOE= 0.4803242000000000E-09
_TOEV=  27.21138505000000    
_TOHERTZ=  6579683920729000.    
_TOHZ=  6579683920729000.    
_TOK=  315775.0400000000    
_TOKCAL=  627.5096000000000    
_TOKELVIN=  315775.0400000000    
_TOKJ=  2625.500000000000    
_TOKJOULE=  2625.500000000000    
_TOKG= 0.1660565586000000E-26
_ANG=  1.889726124565062    
_ANGSTROM=  1.889726124565062    
_RPAREF=  0.000000000000000    
_RPADISS=  0.000000000000000    
_IGNORE_UNDEF=  2.000000000000000    
_STRICTCHECK=  0.000000000000000    
_SEW_ONEEL=  0.000000000000000    
_CPPDONE=FALSE
_DKROLL_DONE=  0.000000000000000    
_FOCKDONE=TRUE
_GRADONE=FALSE
_HESSDONE=FALSE
_INTDONE=TRUE
_SCFDONE=TRUE
_MODUL_BLOCK=FALSE
_MODUL_CUDA=FALSE
_MODUL_SLATER=FALSE
_MODUL_MRCC=FALSE
_MODUL_NBO6=FALSE
_MODUL_NECI=TRUE
_MODUL_AIMS=TRUE
_MRCC_EXEC=
_FITC_AO_SAVED=FALSE
_FITC_MO_SAVED=FALSE
_SHARED_FS=TRUE
_LSTYP=SEWARD
_INTYP=INTS
_GEOMTYP=ZMAT
_GRADTYP=ALASKA
_DIRECT=FALSE
_DKHO= -1.000000000000000    
_SYNCM=  0.000000000000000    
_BASIS=VDZ
_ZORIENT=  1.000000000000000    
_NELEC=  14.00000000000000    
!SPIN=  0.000000000000000    
_QSDSTEP=  0.000000000000000    
_QSDIRC=  0.000000000000000    
_PROGRAM=HF-SCF
_CPUSTEP= 0.1000000000000001E-01
_SYSSTEP=  0.000000000000000    
_WALLSTEP= 0.4000000000000000E-01
!DFSCF=  0.000000000000000    
!SCSGRD=  0.000000000000000    
_BASINP=  610.0000000000000    
_CARTESIAN=TRUE
_CPUTOT= 0.4200000000000000    
_CPUSORT= 0.2999999999999997E-01
_SYSSORT= 0.2000000000000002E-01
_WALLSORT= 0.1099999994039536    
_DFTEXFAC=  1.000000000000000    
_DMX=  0.000000000000000    
_DMY=  0.000000000000000    
_DMZ=-0.8961123557552741E-01
_DMX_SCF=  0.000000000000000    
_DMY_SCF=  0.000000000000000    
_DMZ_SCF=-0.8961123557552741E-01
_EHOMO=-0.5489966478198252    
_ELUMO= 0.1545057675153272    
_EIGS= -20.67130201507766    
_ENERGY= -112.7497069381730    
_ENERGY_METHOD=HF
_ENERGY_BASIS=cc-pVDZ
_GEOMETRY_METHOD=
_GEOMETRY_BASIS=
_ENUC=  22.51829611559392    
_GRADEXFAC=  9999.000000000000    
_GRADMETHOD=  1.000000000000000    
_NMRMETHOD=  0.000000000000000    
_NMRMAGNET=  0.000000000000000    
!GRID_FREEZE= -1.000000000000000    
_ITERATIONS=  9.000000000000000    
_LASTNELEC=  14.00000000000000    
_LASTSPIN=  0.000000000000000    
_LASTSYM=  1.000000000000000    
_MPP_PROG=  0.000000000000000    
_RS2PHASE=  0.000000000000000    
_NPROC_MPP=  1.000000000000000    
_NPROC_MPPX=  1.000000000000000    
_NPROC_SMP=  1.000000000000000    
_NUMSTEP=  0.000000000000000    
_ORBITAL=  2100.200000000000    
_PI=  3.141592653589793    
_SEIG_MIN= 0.1313468076304532E-01
_SEWPROP=TRUE
_STATUS=  1.000000000000000    
_SYSTOT= 0.2500000000000000    
_VERSION=  2015001.000000000    
_WALLTOT=  6.650000000000000    
_DATE=07-Dec-21
_LASTORB=RHF
_MACHINE= 64 bit serial version
_OUTPUT=/home/jeremy/hpc7CISDTetc/largerfcitest/vdz2FrozCartesian/CO.xml
_PGROUP=C2v
_TIME=14:23:30
_LIBMOL=/opt/ohpc/pub/apps/molpro2015/lib/
_VIGRDC=  0.000000000000000    
!VIBCNT=  0.000000000000000    
!RGHFCNT=  0.000000000000000    
!SURFREC=  0.000000000000000    
!ROTREC=  0.000000000000000    
!POLYREC=  0.000000000000000    
!DIPREC=  0.000000000000000    
!DIP4DREC=  0.000000000000000    
!DIPROT=  0.000000000000000    
!DIP4DROT=  0.000000000000000    
!PTREC=  0.000000000000000    
!PT4DREC=  0.000000000000000    
!VSCFREC=  0.000000000000000    
!VCIREC=  0.000000000000000    
!PVCIREC=  0.000000000000000    
!VMP2REC=  0.000000000000000    
!VMCSCFREC=  0.000000000000000    
!VMRCIREC=  0.000000000000000    
!VIBSTATEREC=  0.000000000000000    
!VIBSTATECNT=  0.000000000000000    
!VIBINFO=  0.000000000000000    
!GAREC=  0.000000000000000    
!SCFORB=  21002.00000000000    
!NEWMOL= -1.000000000000000    
!NEWSYM= -1.000000000000000    
_SLFILES=slscratch
_NGSSTO=  9.000000000000000    
_SIN=SIN
_COS=COS
_TAN=TAN
_ACOS=ACOS
_ASIN=ASIN
_ATAN=ATAN
_COSH=COSH
_SINH=SINH
_TANH=TANH
_ABS=ABS
_MOD=MOD
_ERF=ERF
_REFC=REFC
_ERFC=ERFC
_HYPOT=HYPOT
_J0=J0
_J1=J1
_JN=JN
_GAMMA=GAMMA
_LGAMMA=LGAMMA
_Y0=Y0
_Y1=Y1
_YN=YN
_EXP=EXP
_LOG=LOG
_LOG10=LOG10
_SQRT=SQRT
_INT=INT
_NINT=NINT
_MAX=MAX
_MIN=MIN
_COSMO=  0.000000000000000    
_COSMOIT=  0.000000000000000    
_COSMOES=  0.000000000000000    
_COSMOEDS=  0.000000000000000    
_COSMOEC=  0.000000000000000    
_COSMOEDCORR=  0.000000000000000    
_FEPSI=  1.000000000000000    
_SL_IsMM=  0.000000000000000    
_SL_NSYM=  4.000000000000000    
_SL_System_BitSw=  0.000000000000000    
_SL_Unique_atoms=  0.000000000000000    
_SL_GRAD=  0.000000000000000    
_SL_MAXUPD_Hess=  5.000000000000000    
_SL_N_PRINT_COD=  5.000000000000000    
_SL_PRINT_CODES=  0.000000000000000    
_SL_BasType=  0.000000000000000    
_SL_Energy_Pred=  0.000000000000000    
_SL_New_Coords=  0.000000000000000    
_SL_Total_Nuclea=  0.000000000000000    
_SL_Highest_Mltp=  0.000000000000000    
_SL_Ref_Geom=  0.000000000000000    
_SL_Symmetry_ope=  1.000000000000000    
_SL_agrad=  0.000000000000000    
_SL_GrdMax=  0.000000000000000    
_SL_GrdNorm=  0.000000000000000    
_SL_GrdRMS=  0.000000000000000    
_SL_Hss_Q=  0.000000000000000    
_SL_Hss_X=  0.000000000000000    
_SL_BMxOld=  0.000000000000000    
_SL_KtB=  0.000000000000000    
_SL_TROld=  0.000000000000000    
_SL_No_of_Intern=  0.000000000000000    
_SL_Hess=  0.000000000000000    
_SL_K=  0.000000000000000    
!LATTICE= -1.000000000000000    
!NEWLATTICE=  0.000000000000000    
!LATGRAD_VAR=FALSE
!SEW_LATTICE=  1.000000000000000    
!LOCAL=  0.000000000000000    
!SAVEDOM= -1.000000000000000    
!RESTDOM= -1.000000000000000    
!SAVEDOM_HF= -1.000000000000000    
!RESTDOM_HF= -1.000000000000000    
!HESSREC=  0.000000000000000    
!FREQREC=  0.000000000000000    
!NMODREC=  0.000000000000000    
!GTASKS=  0.000000000000000    
!HTASKS=  0.000000000000000    
!SAVEDOM_EOM= -1.000000000000000    
!RESTDOM_EOM= -1.000000000000000    
!GRADSTATE= -1.000000000000000    
!THRCHG= 0.1000000000000000    
!DEBUG= -1.000000000000000    
!CFIT_CPHF=  0.000000000000000    
!RDOMAUX_CPHF=  3.000000000000000    
!THRAO_CPHF= 0.1000000000000000E-09
!THRMO_CPHF= 0.1000000000000000E-08
!THROV_CPHF= 0.1000000000000000E-11
!THRSW_CPHF= 0.1000000000000000E-09
!THRPROD_CPHF= 0.1000000000000000E-08
!THRAOPR_CPHF= 0.1000000000000000E-11
!CFIT_SCFGRD=  0.000000000000000    
!RDOMAUX_SCFGRD=  5.000000000000000    
!THRAO_SCFGRD= 0.1000000000000000E-09
!THRMO_SCFGRD= 0.1000000000000000E-08
!THROV_SCFGRD= 0.1000000000000000E-11
!THRSW_SCFGRD= 0.1000000000000000E-09
!THRPROD_SCFGRD= 0.1000000000000000E-08
!THRAOPR_SCFGRD= 0.1000000000000000E-11
!LOCFIT_SCF=  0.000000000000000    
!LOCFIT_MP2= -1.000000000000000    
_RIDOM=  0.000000000000000    
!CC2_METHOD=  0.000000000000000    
_BASIS2006=FALSE
_SVDDEL= -1.000000000000000    
_SVDDELA= -1.000000000000000    
_SVDDELP= -1.000000000000000    
_SVDDELF= -1.000000000000000    
_SVDDELS= -1.000000000000000    
_SVDDEL_ABS= -1.000000000000000    
_SVDDELA_ABS= -1.000000000000000    
_SVDDELP_ABS= -1.000000000000000    
_SVDDELF_ABS= -1.000000000000000    
_SVDDELS_ABS= -1.000000000000000    
_MAXBASIS=  0.000000000000000    
!OPT_CONICAL=  0.000000000000000    
!CLEARSP_JGRID=  0.000000000000000    
_GRDHYBR=  0.000000000000000    
_STATEGRAD=  1.000000000000000    
_4EXT_NDISKS=  1.000000000000000    
!ZMP=  0.000000000000000    
_MAXIT_ZMP=  500.0000000000000    
_MAXDIS_ZMP=  100.0000000000000    
_ACCU_ZMP=  14.00000000000000    
_SHIFTA_ZMP= -100.0000000000000    
!EMBEDFLAG=  1.000000000000000    
!EMBED=FALSE
!EMBED_F12=FALSE
!EMBEDNUC=  0.000000000000000    
_EMBEDENERGY=  0.000000000000000    
_KSPACETIME=  0.000000000000000    
_RSPACETIME=  0.000000000000000    
!EMBED_DFC=FALSE
!NUM_VOIDS=  0.000000000000000    
_IBODY=  0.000000000000000    
_EMBE_TOTAL=  0.000000000000000    
_EMBE_HF=  0.000000000000000    
_EMBE_CORR=  0.000000000000000    
!EMBED_PROJ=FALSE
!EMBED_TRUNC=  0.000000000000000    
!EMB_PROJ_ZMU=  1000000.000000000    
!CORRECTION=  0.000000000000000    
!CORRECTION_HF=  0.000000000000000    
!EMBED_ENERGY=  0.000000000000000    
!EMBED_NAXC=FALSE
!EMBED_AORB=  0.000000000000000    
!EMBED_NACORR=  0.000000000000000    
!EMBED_MP2=FALSE
!EMBED_TRUNC_PERTURBATION=FALSE
!EMBED_FROZEN=  0.000000000000000    
_CHANGE_BASIS=FALSE
_RESTORE_BASIS=FALSE
_FIX_EMBED_GUESS=FALSE
!EDFT=  0.000000000000000    
_IFASTLATGRAD=  0.000000000000000    
_SINDEX=  0.000000000000000    
_AVDOM_OSV=  0.000000000000000    
_AVDOM_PNO=  0.000000000000000    
_AVDOM_PAO=  0.000000000000000    
_AVDOM_LMO=  0.000000000000000    
_CC2OSV_FLAG=  0.000000000000000    
_TMADC2_FLAG=FALSE
_PROPADC2_FLAG=FALSE
_LEN_VirQ=  0.000000000000000    
_GRDCC2LR_FLAG=FALSE
_GRDADC2_FLAG=FALSE
R1=  2.131600000000000    
GX1=  0.000000000000000    
GY1=  0.000000000000000    
GZ1= -1.217559229429069    
GX2=  0.000000000000000    
GY2=  0.000000000000000    
GZ2= 0.9140407705709308    
[Atoms] Angs
C     1    6         0.0000000000        0.0000000000       -0.6443045972
O     2    8         0.0000000000        0.0000000000        0.4836895456
[GTO]
   1 0
 s    9  1.00
  0.6665000000D+04  0.6920001793D-03
  0.1000000000D+04  0.5329001381D-02
  0.2280000000D+03  0.2707700701D-01
  0.6471000000D+02  0.1017180264D+00
  0.2106000000D+02  0.2747400712D+00
  0.7495000000D+01  0.4485641162D+00
  0.2797000000D+01  0.2850740738D+00
  0.5215000000D+00  0.1520400394D-01
  0.1596000000D+00 -0.3191000827D-02
 s    9  1.00
  0.6665000000D+04 -0.1460000642D-03
  0.1000000000D+04 -0.1154000508D-02
  0.2280000000D+03 -0.5725002519D-02
  0.6471000000D+02 -0.2331201026D-01
  0.2106000000D+02 -0.6395502813D-01
  0.7495000000D+01 -0.1499810660D+00
  0.2797000000D+01 -0.1272620560D+00
  0.5215000000D+00  0.5445292395D+00
  0.1596000000D+00  0.5804962554D+00
 s    9  1.00
  0.6665000000D+04  0.0000000000D+00
  0.1000000000D+04  0.0000000000D+00
  0.2280000000D+03  0.0000000000D+00
  0.6471000000D+02  0.0000000000D+00
  0.2106000000D+02  0.0000000000D+00
  0.7495000000D+01  0.0000000000D+00
  0.2797000000D+01  0.0000000000D+00
  0.5215000000D+00  0.0000000000D+00
  0.1596000000D+00  0.1000000000D+01
 p    4  1.00
  0.9439000000D+01  0.3810902127D-01
  0.2002000000D+01  0.2094801169D+00
  0.5456000000D+00  0.5085572839D+00
  0.1517000000D+00  0.4688422617D+00
 p    4  1.00
  0.9439000000D+01  0.0000000000D+00
  0.2002000000D+01  0.0000000000D+00
  0.5456000000D+00  0.0000000000D+00
  0.1517000000D+00  0.1000000000D+01
 d    1  1.00
  0.5500000000D+00  0.1000000000D+01
  
   2 0
 s    9  1.00
  0.1172000000D+05  0.7100002503D-03
  0.1759000000D+04  0.5470001928D-02
  0.4008000000D+03  0.2783700981D-01
  0.1137000000D+03  0.1048000369D+00
  0.3703000000D+02  0.2830620998D+00
  0.1327000000D+02  0.4487191582D+00
  0.5025000000D+01  0.2709520955D+00
  0.1013000000D+01  0.1545800545D-01
  0.3023000000D+00 -0.2585000911D-02
 s    9  1.00
  0.1172000000D+05 -0.1600000154D-03
  0.1759000000D+04 -0.1263000121D-02
  0.4008000000D+03 -0.6267000602D-02
  0.1137000000D+03 -0.2571600247D-01
  0.3703000000D+02 -0.7092400682D-01
  0.1327000000D+02 -0.1654110159D+00
  0.5025000000D+01 -0.1169550112D+00
  0.1013000000D+01  0.5573680536D+00
  0.3023000000D+00  0.5727590551D+00
 s    9  1.00
  0.1172000000D+05  0.0000000000D+00
  0.1759000000D+04  0.0000000000D+00
  0.4008000000D+03  0.0000000000D+00
  0.1137000000D+03  0.0000000000D+00
  0.3703000000D+02  0.0000000000D+00
  0.1327000000D+02  0.0000000000D+00
  0.5025000000D+01  0.0000000000D+00
  0.1013000000D+01  0.0000000000D+00
  0.3023000000D+00  0.1000000000D+01
 p    4  1.00
  0.1770000000D+02  0.4301799242D-01
  0.3854000000D+01  0.2289129597D+00
  0.1046000000D+01  0.5087279104D+00
  0.2753000000D+00  0.4605309189D+00
 p    4  1.00
  0.1770000000D+02  0.0000000000D+00
  0.3854000000D+01  0.0000000000D+00
  0.1046000000D+01  0.0000000000D+00
  0.2753000000D+00  0.1000000000D+01
 d    1  1.00
  0.1185000000D+01  0.1000000000D+01
 
 
[MO]
 Sym=      1.1
 Ene=     -20.6713
 Spin= Alpha
 Occup=    2.000000
1 0.000022813276285
2 0.000019976102285
3 0.001141517269123
4 0.0
5 0.0
6 -0.000447317550213
7 0.0
8 0.0
9 0.000752038687268
10 0.000088570243505
11 0.000088570243505
12 -0.000664171421588
13 0.0
14 0.0
15 0.0
16 1.00065759174571
17 0.004575183126321
18 -0.002336958439191
19 0.0
20 0.0
21 -0.002447266277700
22 0.0
23 0.0
24 0.001832617052599
25 -0.001278942861936
26 -0.001278942861935
27 -0.000643862406947
28 0.0
29 0.0
30 0.0
 Sym=      2.1
 Ene=     -11.3673
 Spin= Alpha
 Occup=    2.000000
1 1.00059931591771
2 0.005874403542203
3 0.001214427110972
4 0.0
5 0.0
6 0.005062223021315
7 0.0
8 0.0
9 -0.001644645642718
10 -0.002436831000955
11 -0.002436831000955
12 -0.000052971019480
13 0.0
14 0.0
15 0.0
16 -0.000306804499249
17 0.001318110732034
18 -0.004365255789504
19 0.0
20 0.0
21 -0.000825834392818
22 0.0
23 0.0
24 0.002244536207940
25 0.000130823037223
26 0.000130823037223
27 0.000361730889108
28 0.0
29 0.0
30 0.0
 Sym=      3.1
 Ene=      -1.5231
 Spin= Alpha
 Occup=    2.000000
1 -0.014953788871009
2 0.43491112207394
3 -0.17367001477351
4 0.0
5 0.0
6 0.31838000626119
7 0.0
8 0.0
9 -0.13373537722829
10 -0.020626760232567
11 -0.020626760232567
12 0.045649118482246
13 0.0
14 0.0
15 0.0
16 -0.008950849746348
17 0.82054333158333
18 -0.13867899271012
19 0.0
20 0.0
21 -0.23419679124864
22 0.0
23 0.0
24 0.084076850751371
25 -0.004889334419550
26 -0.004889334419550
27 0.026019180755715
28 0.0
29 0.0
30 0.0
 Sym=      4.1
 Ene=      -0.8024
 Spin= Alpha
 Occup=    2.000000
1 -0.009059615295143
2 -0.59990541402511
3 0.20501295029982
4 0.0
5 0.0
6 -0.19116143318507
7 0.0
8 0.0
9 0.12760553028808
10 0.007743509671663
11 0.007743509671663
12 -0.018196549421990
13 0.0
14 0.0
15 0.0
16 0.002482026410344
17 0.47361818374556
18 0.12949691244466
19 0.0
20 0.0
21 0.72423741844802
22 0.0
23 0.0
24 -0.075212814853126
25 0.007098496030167
26 0.007098496030166
27 -0.028578338877029
28 0.0
29 0.0
30 0.0
 Sym=      1.3
 Ene=      -0.6346
 Spin= Alpha
 Occup=    2.000000
1 0.0
2 0.0
3 0.0
4 0.0
5 0.44169563775606
6 0.0
7 0.0
8 -0.074473446148358
9 0.0
10 0.0
11 0.0
12 0.0
13 0.0
14 0.0
15 0.063459878063789
16 0.0
17 0.0
18 0.0
19 0.0
20 0.79866340322286
21 0.0
22 0.0
23 -0.013357581849617
24 0.0
25 0.0
26 0.0
27 0.0
28 0.0
29 0.0
30 -0.030660488268875
 Sym=      1.2
 Ene=      -0.6346
 Spin= Alpha
 Occup=    2.000000
1 0.0
2 0.0
3 0.0
4 0.44169563775606
5 0.0
6 0.0
7 -0.074473446148359
8 0.0
9 0.0
10 0.0
11 0.0
12 0.0
13 0.0
14 0.063459878063788
15 0.0
16 0.0
17 0.0
18 0.0
19 0.79866340322286
20 0.0
21 0.0
22 -0.013357581849617
23 0.0
24 0.0
25 0.0
26 0.0
27 0.0
28 0.0
29 -0.030660488268876
30 0.0
 Sym=      5.1
 Ene=      -0.5490
 Spin= Alpha
 Occup=    2.000000
1 0.006963072467728
2 -0.59036290860805
3 -0.23932600020668
4 0.0
5 0.0
6 0.67756678499340
7 0.0
8 0.0
9 -0.15180463916122
10 -0.013812825832937
11 -0.013812825832937
12 0.037686947086102
13 0.0
14 0.0
15 0.0
16 0.000643458183738
17 0.063840040930226
18 -0.036879144390969
19 0.0
20 0.0
21 -0.36846946561876
22 0.0
23 0.0
24 0.022329908920911
25 -0.004993172551889
26 -0.004993172551889
27 0.017352576012375
28 0.0
29 0.0
30 0.0
 Sym=      2.2
 Ene=       0.1545
 Spin= Alpha
 Occup=    0.000000
1 0.0
2 0.0
3 0.0
4 0.66091967186426
5 0.0
6 0.0
7 0.46374300810961
8 0.0
9 0.0
10 0.0
11 0.0
12 0.0
13 0.0
14 -0.008949031215173
15 0.0
16 0.0
17 0.0
18 0.0
19 -0.50696680000795
20 0.0
21 0.0
22 -0.26884902144114
23 0.0
24 0.0
25 0.0
26 0.0
27 0.0
28 0.0
29 -0.009023454366564
30 0.0
 Sym=      2.3
 Ene=       0.1545
 Spin= Alpha
 Occup=    0.000000
1 0.0
2 0.0
3 0.0
4 0.0
5 0.66091967186426
6 0.0
7 0.0
8 0.46374300810960
9 0.0
10 0.0
11 0.0
12 0.0
13 0.0
14 0.0
15 -0.008949031215174
16 0.0
17 0.0
18 0.0
19 0.0
20 -0.50696680000796
21 0.0
22 0.0
23 -0.26884902144113
24 0.0
25 0.0
26 0.0
27 0.0
28 0.0
29 0.0
30 -0.009023454366564
 Sym=      6.1
 Ene=       0.3798
 Spin= Alpha
 Occup=    0.000000
1 -0.074094473669277
2 -0.17648054921007
3 1.82976482407935
4 0.0
5 0.0
6 0.11847384226067
7 0.0
8 0.0
9 1.69773570634798
10 -0.048138870324584
11 -0.048138870324581
12 0.026465611556727
13 0.0
14 0.0
15 0.0
16 0.071141430217483
17 -0.16255689955628
18 -1.87414912806020
19 0.0
20 0.0
21 0.092405351756518
22 0.0
23 0.0
24 0.54608272957596
25 0.050862901759779
26 0.050862901759780
27 -0.000820327375290
28 0.0
29 0.0
30 0.0
 Sym=      7.1
 Ene=       0.6501
 Spin= Alpha
 Occup=    0.000000
1 -0.53047292367911
2 -2.29078275189887
3 3.22477128351225
4 0.0
5 0.0
6 0.71617314779026
7 0.0
8 0.0
9 -0.72956947456322
10 -0.28209283769756
11 -0.28209283769755
12 -0.31036223656599
13 0.0
14 0.0
15 0.0
16 0.007303947521213
17 -0.038209502411500
18 -0.16650736030643
19 0.0
20 0.0
21 -0.15804870297600
22 0.0
23 0.0
24 0.15375743272084
25 0.005503816517581
26 0.005503816517579
27 0.012821573190775
28 0.0
29 0.0
30 0.0
 Sym=      3.3
 Ene=       0.6721
 Spin= Alpha
 Occup=    0.000000
1 0.0
2 0.0
3 0.0
4 0.0
5 -1.54959767748761
6 0.0
7 0.0
8 1.74250132753916
9 0.0
10 0.0
11 0.0
12 0.0
13 0.0
14 0.0
15 -0.033093135466564
16 0.0
17 0.0
18 0.0
19 0.0
20 0.008592335147406
21 0.0
22 0.0
23 -0.015438727254214
24 0.0
25 0.0
26 0.0
27 0.0
28 0.0
29 0.0
30 0.050823938924731
 Sym=      3.2
 Ene=       0.6721
 Spin= Alpha
 Occup=    0.000000
1 0.0
2 0.0
3 0.0
4 -1.54959767748761
5 0.0
6 0.0
7 1.74250132753915
8 0.0
9 0.0
10 0.0
11 0.0
12 0.0
13 0.0
14 -0.033093135466566
15 0.0
16 0.0
17 0.0
18 0.0
19 0.008592335147398
20 0.0
21 0.0
22 -0.015438727254199
23 0.0
24 0.0
25 0.0
26 0.0
27 0.0
28 0.0
29 0.050823938924731
30 0.0
 Sym=      8.1
 Ene=       1.0068
 Spin= Alpha
 Occup=    0.000000
1 0.48106013930778
2 2.04795469948258
3 -1.31780157116508
4 0.0
5 0.0
6 1.41259022788912
7 0.0
8 0.0
9 -0.96286149155020
10 0.15992165865112
11 0.15992165865110
12 -0.000449106201854
13 0.0
14 0.0
15 0.0
16 -0.044222293784196
17 -0.50752773922479
18 -0.045048569585851
19 0.0
20 0.0
21 -0.060256501062163
22 0.0
23 0.0
24 1.33092226609568
25 -0.076892999434215
26 -0.076892999434215
27 0.069504596151684
28 0.0
29 0.0
30 0.0
 Sym=      9.1
 Ene=       1.0586
 Spin= Alpha
 Occup=    0.000000
1 0.098416352817865
2 0.097378539527633
3 0.67867238932828
4 0.0
5 0.0
6 -0.36825917533425
7 0.0
8 0.0
9 0.75696382557488
10 -0.26261465304481
11 -0.26261465304480
12 0.59643712810573
13 0.0
14 0.0
15 0.0
16 -0.012912590315202
17 -0.002832420031514
18 -0.78493692268729
19 0.0
20 0.0
21 -1.04277277294086
22 0.0
23 0.0
24 1.52506303100524
25 0.000640144579168
26 0.000640144579169
27 -0.11323593071725
28 0.0
29 0.0
30 0.0
 Sym=      4.3
 Ene=       1.2241
 Spin= Alpha
 Occup=    0.000000
1 0.0
2 0.0
3 0.0
4 0.0
5 0.10788712829802
6 0.0
7 0.0
8 -0.63518850064159
9 0.0
10 0.0
11 0.0
12 0.0
13 0.0
14 0.0
15 -0.29165139771639
16 0.0
17 0.0
18 0.0
19 0.0
20 -1.31514123224934
21 0.0
22 0.0
23 1.98511616079635
24 0.0
25 0.0
26 0.0
27 0.0
28 0.0
29 0.0
30 0.031489176430560
 Sym=      4.2
 Ene=       1.2241
 Spin= Alpha
 Occup=    0.000000
1 0.0
2 0.0
3 0.0
4 0.10788712829803
5 0.0
6 0.0
7 -0.63518850064160
8 0.0
9 0.0
10 0.0
11 0.0
12 0.0
13 0.0
14 -0.29165139771640
15 0.0
16 0.0
17 0.0
18 0.0
19 -1.31514123224934
20 0.0
21 0.0
22 1.98511616079635
23 0.0
24 0.0
25 0.0
26 0.0
27 0.0
28 0.0
29 0.031489176430561
30 0.0
 Sym=     10.1
 Ene=       1.3441
 Spin= Alpha
 Occup=    0.000000
1 -0.000000000000009
2 -0.000000000000036
3 0.000000000000027
4 0.0
5 0.0
6 -0.000000000000013
7 0.0
8 0.0
9 0.000000000000000
10 0.85096037316231
11 -0.85096037316232
12 -0.000000000000003
13 0.0
14 0.0
15 0.0
16 -0.000000000000007
17 -0.000000000000024
18 0.000000000000046
19 0.0
20 0.0
21 -0.000000000000007
22 0.0
23 0.0
24 -0.000000000000011
25 0.080647760454598
26 -0.080647760454598
27 -0.000000000000005
28 0.0
29 0.0
30 0.0
 Sym=      1.4
 Ene=       1.3441
 Spin= Alpha
 Occup=    0.000000
1 0.0
2 0.0
3 0.0
4 0.0
5 0.0
6 0.0
7 0.0
8 0.0
9 0.0
10 0.0
11 0.0
12 0.0
13 0.98260440100671
14 0.0
15 0.0
16 0.0
17 0.0
18 0.0
19 0.0
20 0.0
21 0.0
22 0.0
23 0.0
24 0.0
25 0.0
26 0.0
27 0.0
28 0.093124012515785
29 0.0
30 0.0
 Sym=      5.2
 Ene=       1.5585
 Spin= Alpha
 Occup=    0.000000
1 0.0
2 0.0
3 0.0
4 -0.094094442461818
5 0.0
6 0.0
7 0.28432917838639
8 0.0
9 0.0
10 0.0
11 0.0
12 0.0
13 0.0
14 1.04610895729758
15 0.0
16 0.0
17 0.0
18 0.0
19 -0.56989481013448
20 0.0
21 0.0
22 0.018719752901409
23 0.0
24 0.0
25 0.0
26 0.0
27 0.0
28 0.0
29 -0.099078669744184
30 0.0
 Sym=      5.3
 Ene=       1.5585
 Spin= Alpha
 Occup=    0.000000
1 0.0
2 0.0
3 0.0
4 0.0
5 -0.094094442461818
6 0.0
7 0.0
8 0.28432917838639
9 0.0
10 0.0
11 0.0
12 0.0
13 0.0
14 0.0
15 1.04610895729758
16 0.0
17 0.0
18 0.0
19 0.0
20 -0.56989481013447
21 0.0
22 0.0
23 0.018719752901398
24 0.0
25 0.0
26 0.0
27 0.0
28 0.0
29 0.0
30 -0.099078669744186
 Sym=     11.1
 Ene=       1.8334
 Spin= Alpha
 Occup=    0.000000
1 -0.18647861228448
2 -0.76989858756573
3 -1.74534985713370
4 0.0
5 0.0
6 -0.70379253555342
7 0.0
8 0.0
9 -1.11872316366510
10 0.29585159348905
11 0.29585159348907
12 -0.43591401927158
13 0.0
14 0.0
15 0.0
16 -0.75802673353883
17 -2.91210206762844
18 6.19448803435679
19 0.0
20 0.0
21 -0.36786210735075
22 0.0
23 0.0
24 -0.89617982338815
25 -0.19044186088288
26 -0.19044186088289
27 -0.39048532607415
28 0.0
29 0.0
30 0.0
 Sym=     12.1
 Ene=       2.2742
 Spin= Alpha
 Occup=    0.000000
1 -0.036036417669667
2 0.76996215051321
3 0.030783553693851
4 0.0
5 0.0
6 0.52019753682083
7 0.0
8 0.0
9 -0.097826930145039
10 -0.94120453877003
11 -0.94120453877002
12 0.70016540974418
13 0.0
14 0.0
15 0.0
16 -0.44764236273272
17 -1.80302384308532
18 1.57658442180000
19 0.0
20 0.0
21 1.17584946473703
22 0.0
23 0.0
24 -1.12807351508740
25 -0.14069038121159
26 -0.14069038121160
27 -0.11238154888332
28 0.0
29 0.0
30 0.0
 Sym=     13.1
 Ene=       2.6804
 Spin= Alpha
 Occup=    0.000000
1 -0.048906121380336
2 -1.96516112252226
3 0.037043801504782
4 0.0
5 0.0
6 0.90867248575043
7 0.0
8 0.0
9 -0.057284544691027
10 1.05958900862190
11 1.05958900862190
12 2.01754933061146
13 0.0
14 0.0
15 0.0
16 -0.15990659916950
17 -0.59587603069666
18 -0.49713753073524
19 0.0
20 0.0
21 0.66953225709491
22 0.0
23 0.0
24 0.19307963336802
25 -0.007117508895810
26 -0.007117508895817
27 -0.15755315670515
28 0.0
29 0.0
30 0.0
 Sym=     14.1
 Ene=       2.9371
 Spin= Alpha
 Occup=    0.000000
1 -0.000000000000000
2 -0.000000000000001
3 0.000000000000018
4 0.0
5 0.0
6 -0.000000000000013
7 0.0
8 0.0
9 0.000000000000018
10 -0.20271784426772
11 0.20271784426772
12 -0.000000000000011
13 0.0
14 0.0
15 0.0
16 0.000000000000010
17 0.000000000000032
18 -0.000000000000060
19 0.0
20 0.0
21 -0.000000000000011
22 0.0
23 0.0
24 0.000000000000012
25 0.87104765645214
26 -0.87104765645213
27 0.000000000000020
28 0.0
29 0.0
30 0.0
 Sym=      2.4
 Ene=       2.9371
 Spin= Alpha
 Occup=    0.000000
1 0.0
2 0.0
3 0.0
4 0.0
5 0.0
6 0.0
7 0.0
8 0.0
9 0.0
10 0.0
11 0.0
12 0.0
13 -0.23407840401250
14 0.0
15 0.0
16 0.0
17 0.0
18 0.0
19 0.0
20 0.0
21 0.0
22 0.0
23 0.0
24 0.0
25 0.0
26 0.0
27 0.0
28 1.00579919785002
29 0.0
30 0.0
 Sym=      6.2
 Ene=       3.4265
 Spin= Alpha
 Occup=    0.000000
1 0.0
2 0.0
3 0.0
4 0.45067698567458
5 0.0
6 0.0
7 0.003063311627721
8 0.0
9 0.0
10 0.0
11 0.0
12 0.0
13 0.0
14 0.66338715967004
15 0.0
16 0.0
17 0.0
18 0.0
19 -0.033823271991254
20 0.0
21 0.0
22 -0.45043897129608
23 0.0
24 0.0
25 0.0
26 0.0
27 0.0
28 0.0
29 1.13136114388446
30 0.0
 Sym=      6.3
 Ene=       3.4265
 Spin= Alpha
 Occup=    0.000000
1 0.0
2 0.0
3 0.0
4 0.0
5 0.45067698567458
6 0.0
7 0.0
8 0.003063311627722
9 0.0
10 0.0
11 0.0
12 0.0
13 0.0
14 0.0
15 0.66338715967004
16 0.0
17 0.0
18 0.0
19 0.0
20 -0.033823271991255
21 0.0
22 0.0
23 -0.45043897129608
24 0.0
25 0.0
26 0.0
27 0.0
28 0.0
29 0.0
30 1.13136114388446
 Sym=     15.1
 Ene=       3.8717
 Spin= Alpha
 Occup=    0.000000
1 -0.55644123478220
2 -2.33194141726460
3 0.49597214432882
4 0.0
5 0.0
6 -1.61819933787976
7 0.0
8 0.0
9 0.30298390305496
10 0.21623131263064
11 0.21623131263064
12 -0.38638286812716
13 0.0
14 0.0
15 0.0
16 -0.25620680795241
17 -0.87738532508130
18 2.70707870910276
19 0.0
20 0.0
21 -0.39591601768350
22 0.0
23 0.0
24 -0.97217526760115
25 -0.63744434462032
26 -0.63744434462031
27 1.20305398679019
28 0.0
29 0.0
30 0.0
 Sym=     16.1
 Ene=       6.0340
 Spin= Alpha
 Occup=    0.000000
1 -0.042513112908309
2 -0.029881687348771
3 -0.93865837158761
4 0.0
5 0.0
6 0.17231340615624
7 0.0
8 0.0
9 -0.67693750000505
10 -0.036960578340914
11 -0.036960578340914
12 0.16574586764059
13 0.0
14 0.0
15 0.0
16 0.16280636080613
17 2.76542062655848
18 1.25924366057389
19 0.0
20 0.0
21 0.25529931716767
22 0.0
23 0.0
24 -0.61110297964526
25 -1.55623670635595
26 -1.55623670635595
27 -1.52649900759919
28 0.0
29 0.0
30 0.0
