[Molden Format]
[Molpro variables]
_NUMVAR=  891.0000000000000    
_AVOGAD= 0.6022136736000000E+24
_BOLTZ= 0.1380658000000000E-22
_CLIGHT=  29979245800.00000    
_EV= 0.3674932379085202E-01
_ENULL= 0.8854187817000000E-11
_KJOULE= 0.3808798324128737E-03
_KJOULE/MOL= 0.3808798324128737E-03
_CM= 0.4556335267302901E-05
_CM-1= 0.4556335267302901E-05
_DEB2SI= 0.3335641000000000E-29
_AMU2AU=  1822.888390000000    
_KCAL= 0.1593601117815568E-02
_KCAL/MOL= 0.1593601117815568E-02
_KELVIN= 0.3166811411060229E-05
_JOULE= 0.4359748200000000E-17
_HERTZ= 0.1519829846004524E-15
_HZ= 0.1519829846004524E-15
_JPCAL=  4.184000000000000    
_PLANCK= 0.6626075540000000E-33
_TOA= 0.5291772109200000    
_TOANG= 0.5291772109200000    
_TORAD= 0.1745329251994330E-01
_TOCM=  219474.6306700000    
_TODEBYE=  2.541580000000000    
_TOE= 0.4803242000000000E-09
_TOEV=  27.21138505000000    
_TOHERTZ=  6579683920729000.    
_TOHZ=  6579683920729000.    
_TOK=  315775.0400000000    
_TOKCAL=  627.5096000000000    
_TOKELVIN=  315775.0400000000    
_TOKJ=  2625.500000000000    
_TOKJOULE=  2625.500000000000    
_TOKG= 0.1660565586000000E-26
_ANG=  1.889726124565062    
_ANGSTROM=  1.889726124565062    
_RPAREF=  0.000000000000000    
_RPADISS=  0.000000000000000    
_IGNORE_UNDEF=  2.000000000000000    
_STRICTCHECK=  0.000000000000000    
_SEW_ONEEL=  0.000000000000000    
_CPPDONE=FALSE
_DKROLL_DONE=  0.000000000000000    
_FOCKDONE=TRUE
_GRADONE=FALSE
_HESSDONE=FALSE
_INTDONE=TRUE
_SCFDONE=TRUE
_MODUL_BLOCK=FALSE
_MODUL_CUDA=FALSE
_MODUL_SLATER=FALSE
_MODUL_MRCC=FALSE
_MODUL_NBO6=FALSE
_MODUL_NECI=TRUE
_MODUL_AIMS=TRUE
_MRCC_EXEC=
_FITC_AO_SAVED=FALSE
_FITC_MO_SAVED=FALSE
_SHARED_FS=TRUE
_LSTYP=SEWARD
_INTYP=INTS
_GEOMTYP=ZMAT
_GRADTYP=ALASKA
_DIRECT=FALSE
_DKHO= -1.000000000000000    
_SYNCM=  0.000000000000000    
_BASIS=6-31G
_ZORIENT=  1.000000000000000    
_NELEC=  14.00000000000000    
!SPIN=  0.000000000000000    
_QSDSTEP=  0.000000000000000    
_QSDIRC=  0.000000000000000    
_PROGRAM=HF-SCF
_CPUSTEP= 0.6000000000000000E-01
_SYSSTEP= 0.1000000000000001E-01
_WALLSTEP= 0.3400000000000000    
!DFSCF=  0.000000000000000    
!SCSGRD=  0.000000000000000    
_BASINP=  610.0000000000000    
_CARTESIAN=TRUE
_CPUTOT= 0.3800000000000000    
_CPUSORT= 0.4000000000000004E-01
_SYSSORT= 0.9999999999999981E-02
_WALLSORT= 0.6000000052154064E-01
_DFTEXFAC=  1.000000000000000    
_DMX=  0.000000000000000    
_DMY=  0.000000000000000    
_DMZ=-0.9803160797501298    
_DMX_SCF=  0.000000000000000    
_DMY_SCF=  0.000000000000000    
_DMZ_SCF=-0.9803160797501298    
_EHOMO=-0.4176319553531390    
_ELUMO= 0.5687399584533116E-02
_EIGS= -20.61638811144271    
_ENERGY= -112.2992796058086    
_ENERGY_METHOD=HF
_ENERGY_BASIS=6-31G
_GEOMETRY_METHOD=
_GEOMETRY_BASIS=
_ENUC=  12.00000000000000    
_GRADEXFAC=  9999.000000000000    
_GRADMETHOD=  1.000000000000000    
_NMRMETHOD=  0.000000000000000    
_NMRMAGNET=  0.000000000000000    
!GRID_FREEZE= -1.000000000000000    
_ITERATIONS=  14.00000000000000    
_LASTNELEC=  14.00000000000000    
_LASTSPIN=  0.000000000000000    
_LASTSYM=  1.000000000000000    
_MPP_PROG=  0.000000000000000    
_RS2PHASE=  0.000000000000000    
_NPROC_MPP=  1.000000000000000    
_NPROC_MPPX=  1.000000000000000    
_NPROC_SMP=  1.000000000000000    
_NUMSTEP=  0.000000000000000    
_ORBITAL=  2100.200000000000    
_PI=  3.141592653589793    
_SEIG_MIN= 0.1077952531718128    
_SEWPROP=TRUE
_STATUS=  1.000000000000000    
_SYSTOT= 0.2100000000000000    
_VERSION=  2015001.000000000    
_WALLTOT=  2.100000000000000    
_DATE=08-Feb-22
_LASTORB=RHF
_MACHINE= 64 bit serial version
_OUTPUT=/home/jeremy/newCalcsForXray/CO/stretched/CO.xml
_PGROUP=C2v
_TIME=16:18:56
_LIBMOL=/shared/apps/quantum/molpro2015.1/lib/
_VIGRDC=  0.000000000000000    
!VIBCNT=  0.000000000000000    
!RGHFCNT=  0.000000000000000    
!SURFREC=  0.000000000000000    
!ROTREC=  0.000000000000000    
!POLYREC=  0.000000000000000    
!DIPREC=  0.000000000000000    
!DIP4DREC=  0.000000000000000    
!DIPROT=  0.000000000000000    
!DIP4DROT=  0.000000000000000    
!PTREC=  0.000000000000000    
!PT4DREC=  0.000000000000000    
!VSCFREC=  0.000000000000000    
!VCIREC=  0.000000000000000    
!PVCIREC=  0.000000000000000    
!VMP2REC=  0.000000000000000    
!VMCSCFREC=  0.000000000000000    
!VMRCIREC=  0.000000000000000    
!VIBSTATEREC=  0.000000000000000    
!VIBSTATECNT=  0.000000000000000    
!VIBINFO=  0.000000000000000    
!GAREC=  0.000000000000000    
!SCFORB=  21002.00000000000    
!NEWMOL= -1.000000000000000    
!NEWSYM= -1.000000000000000    
_SLFILES=slscratch
_NGSSTO=  9.000000000000000    
_SIN=SIN
_COS=COS
_TAN=TAN
_ACOS=ACOS
_ASIN=ASIN
_ATAN=ATAN
_COSH=COSH
_SINH=SINH
_TANH=TANH
_ABS=ABS
_MOD=MOD
_ERF=ERF
_REFC=REFC
_ERFC=ERFC
_HYPOT=HYPOT
_J0=J0
_J1=J1
_JN=JN
_GAMMA=GAMMA
_LGAMMA=LGAMMA
_Y0=Y0
_Y1=Y1
_YN=YN
_EXP=EXP
_LOG=LOG
_LOG10=LOG10
_SQRT=SQRT
_INT=INT
_NINT=NINT
_MAX=MAX
_MIN=MIN
_COSMO=  0.000000000000000    
_COSMOIT=  0.000000000000000    
_COSMOES=  0.000000000000000    
_COSMOEDS=  0.000000000000000    
_COSMOEC=  0.000000000000000    
_COSMOEDCORR=  0.000000000000000    
_FEPSI=  1.000000000000000    
_SL_IsMM=  0.000000000000000    
_SL_NSYM=  4.000000000000000    
_SL_System_BitSw=  0.000000000000000    
_SL_Unique_atoms=  0.000000000000000    
_SL_GRAD=  0.000000000000000    
_SL_MAXUPD_Hess=  5.000000000000000    
_SL_N_PRINT_COD=  5.000000000000000    
_SL_PRINT_CODES=  0.000000000000000    
_SL_BasType=  0.000000000000000    
_SL_Energy_Pred=  0.000000000000000    
_SL_New_Coords=  0.000000000000000    
_SL_Total_Nuclea=  0.000000000000000    
_SL_Highest_Mltp=  0.000000000000000    
_SL_Ref_Geom=  0.000000000000000    
_SL_Symmetry_ope=  1.000000000000000    
_SL_agrad=  0.000000000000000    
_SL_GrdMax=  0.000000000000000    
_SL_GrdNorm=  0.000000000000000    
_SL_GrdRMS=  0.000000000000000    
_SL_Hss_Q=  0.000000000000000    
_SL_Hss_X=  0.000000000000000    
_SL_BMxOld=  0.000000000000000    
_SL_KtB=  0.000000000000000    
_SL_TROld=  0.000000000000000    
_SL_No_of_Intern=  0.000000000000000    
_SL_Hess=  0.000000000000000    
_SL_K=  0.000000000000000    
!LATTICE= -1.000000000000000    
!NEWLATTICE=  0.000000000000000    
!LATGRAD_VAR=FALSE
!SEW_LATTICE=  1.000000000000000    
!LOCAL=  0.000000000000000    
!SAVEDOM= -1.000000000000000    
!RESTDOM= -1.000000000000000    
!SAVEDOM_HF= -1.000000000000000    
!RESTDOM_HF= -1.000000000000000    
!HESSREC=  0.000000000000000    
!FREQREC=  0.000000000000000    
!NMODREC=  0.000000000000000    
!GTASKS=  0.000000000000000    
!HTASKS=  0.000000000000000    
!SAVEDOM_EOM= -1.000000000000000    
!RESTDOM_EOM= -1.000000000000000    
!GRADSTATE= -1.000000000000000    
!THRCHG= 0.1000000000000000    
!DEBUG= -1.000000000000000    
!CFIT_CPHF=  0.000000000000000    
!RDOMAUX_CPHF=  3.000000000000000    
!THRAO_CPHF= 0.1000000000000000E-09
!THRMO_CPHF= 0.1000000000000000E-08
!THROV_CPHF= 0.1000000000000000E-11
!THRSW_CPHF= 0.1000000000000000E-09
!THRPROD_CPHF= 0.1000000000000000E-08
!THRAOPR_CPHF= 0.1000000000000000E-11
!CFIT_SCFGRD=  0.000000000000000    
!RDOMAUX_SCFGRD=  5.000000000000000    
!THRAO_SCFGRD= 0.1000000000000000E-09
!THRMO_SCFGRD= 0.1000000000000000E-08
!THROV_SCFGRD= 0.1000000000000000E-11
!THRSW_SCFGRD= 0.1000000000000000E-09
!THRPROD_SCFGRD= 0.1000000000000000E-08
!THRAOPR_SCFGRD= 0.1000000000000000E-11
!LOCFIT_SCF=  0.000000000000000    
!LOCFIT_MP2= -1.000000000000000    
_RIDOM=  0.000000000000000    
!CC2_METHOD=  0.000000000000000    
_BASIS2006=FALSE
_SVDDEL= -1.000000000000000    
_SVDDELA= -1.000000000000000    
_SVDDELP= -1.000000000000000    
_SVDDELF= -1.000000000000000    
_SVDDELS= -1.000000000000000    
_SVDDEL_ABS= -1.000000000000000    
_SVDDELA_ABS= -1.000000000000000    
_SVDDELP_ABS= -1.000000000000000    
_SVDDELF_ABS= -1.000000000000000    
_SVDDELS_ABS= -1.000000000000000    
_MAXBASIS=  0.000000000000000    
!OPT_CONICAL=  0.000000000000000    
!CLEARSP_JGRID=  0.000000000000000    
_GRDHYBR=  0.000000000000000    
_STATEGRAD=  1.000000000000000    
_4EXT_NDISKS=  1.000000000000000    
!ZMP=  0.000000000000000    
_MAXIT_ZMP=  500.0000000000000    
_MAXDIS_ZMP=  100.0000000000000    
_ACCU_ZMP=  14.00000000000000    
_SHIFTA_ZMP= -100.0000000000000    
!EMBEDFLAG=  1.000000000000000    
!EMBED=FALSE
!EMBED_F12=FALSE
!EMBEDNUC=  0.000000000000000    
_EMBEDENERGY=  0.000000000000000    
_KSPACETIME=  0.000000000000000    
_RSPACETIME=  0.000000000000000    
!EMBED_DFC=FALSE
!NUM_VOIDS=  0.000000000000000    
_IBODY=  0.000000000000000    
_EMBE_TOTAL=  0.000000000000000    
_EMBE_HF=  0.000000000000000    
_EMBE_CORR=  0.000000000000000    
!EMBED_PROJ=FALSE
!EMBED_TRUNC=  0.000000000000000    
!EMB_PROJ_ZMU=  1000000.000000000    
!CORRECTION=  0.000000000000000    
!CORRECTION_HF=  0.000000000000000    
!EMBED_ENERGY=  0.000000000000000    
!EMBED_NAXC=FALSE
!EMBED_AORB=  0.000000000000000    
!EMBED_NACORR=  0.000000000000000    
!EMBED_MP2=FALSE
!EMBED_TRUNC_PERTURBATION=FALSE
!EMBED_FROZEN=  0.000000000000000    
_CHANGE_BASIS=FALSE
_RESTORE_BASIS=FALSE
_FIX_EMBED_GUESS=FALSE
!EDFT=  0.000000000000000    
_IFASTLATGRAD=  0.000000000000000    
_SINDEX=  0.000000000000000    
_AVDOM_OSV=  0.000000000000000    
_AVDOM_PNO=  0.000000000000000    
_AVDOM_PAO=  0.000000000000000    
_AVDOM_LMO=  0.000000000000000    
_CC2OSV_FLAG=  0.000000000000000    
_TMADC2_FLAG=FALSE
_PROPADC2_FLAG=FALSE
_LEN_VirQ=  0.000000000000000    
_GRDCC2LR_FLAG=FALSE
_GRDADC2_FLAG=FALSE
R1=  4.000000000000000    
GX1=  0.000000000000000    
GY1=  0.000000000000000    
GZ1= -2.284779938879845    
GX2=  0.000000000000000    
GY2=  0.000000000000000    
GZ2=  1.715220061120155    
[Atoms] Angs
C     1    6         0.0000000000        0.0000000000       -1.2090534756
O     2    8         0.0000000000        0.0000000000        0.9076553681
[GTO]
   1 0
 s    6  1.00
  0.3047524900D+04  0.1834737091D-02
  0.4573695200D+03  0.1403732293D-01
  0.1039486800D+03  0.6884262165D-01
  0.2921015500D+02  0.2321844388D+00
  0.9286663000D+01  0.4679413476D+00
  0.3163927000D+01  0.3623119882D+00
 s    3  1.00
  0.7868272300D+01 -0.1193324245D+00
  0.1881288500D+01 -0.1608541561D+00
  0.5442492600D+00  0.1143456443D+01
 s    1  1.00
  0.1687144800D+00  0.1000000000D+01
 p    3  1.00
  0.7868272300D+01  0.6899906693D-01
  0.1881288500D+01  0.3164239597D+00
  0.5442492600D+00  0.7443082892D+00
 p    1  1.00
  0.1687144800D+00  0.1000000000D+01
  
   2 0
 s    6  1.00
  0.5484671700D+04  0.1831074396D-02
  0.8252349500D+03  0.1395017197D-01
  0.1880469600D+03  0.6844507786D-01
  0.5296450000D+02  0.2327143395D+00
  0.1689757000D+02  0.4701928990D+00
  0.5799635300D+01  0.3585208493D+00
 s    3  1.00
  0.1553961600D+02 -0.1107775519D+00
  0.3599933600D+01 -0.1480262626D+00
  0.1013761800D+01  0.1130767020D+01
 s    1  1.00
  0.2700058200D+00  0.1000000000D+01
 p    3  1.00
  0.1553961600D+02  0.7087426737D-01
  0.3599933600D+01  0.3397528370D+00
  0.1013761800D+01  0.7271585736D+00
 p    1  1.00
  0.2700058200D+00  0.1000000000D+01
 
 
[MO]
 Sym=      1.1
 Ene=     -20.6164
 Spin= Alpha
 Occup=    2.000000
1 -0.000054728826977
2 -0.000478161204290
3 0.001086241497972
4 0.0
5 0.0
6 -0.000064355735767
7 0.0
8 0.0
9 0.000969076000399
10 0.99596760450394
11 0.020143848592244
12 -0.005043652338366
13 0.0
14 0.0
15 -0.000611045058849
16 0.0
17 0.0
18 0.000849336103771
 Sym=      2.1
 Ene=     -11.4655
 Spin= Alpha
 Occup=    2.000000
1 0.99673210188893
2 0.019210171691559
3 -0.005794550687188
4 0.0
5 0.0
6 0.000788907044813
7 0.0
8 0.0
9 -0.001083938673521
10 -0.000036856728610
11 -0.000442905668749
12 0.001266732524142
13 0.0
14 0.0
15 -0.000029747763704
16 0.0
17 0.0
18 -0.000843489891553
 Sym=      3.1
 Ene=      -1.1814
 Spin= Alpha
 Occup=    2.000000
1 -0.022483680822447
2 0.051307518141894
3 0.039202543469971
4 0.0
5 0.0
6 0.039986226664066
7 0.0
8 0.0
9 0.010177047325119
10 -0.22906442988114
11 0.53155971772872
12 0.54004625671704
13 0.0
14 0.0
15 -0.001058939323997
16 0.0
17 0.0
18 -0.012000744643272
 Sym=      4.1
 Ene=      -0.7839
 Spin= Alpha
 Occup=    2.000000
1 -0.22523033955572
2 0.50405122161882
3 0.55396433263435
4 0.0
5 0.0
6 -0.005642993822158
7 0.0
8 0.0
9 -0.009804710644784
10 0.034912470435063
11 -0.089745995856745
12 -0.098455172367132
13 0.0
14 0.0
15 -0.056561261006733
16 0.0
17 0.0
18 -0.042732154115788
 Sym=      1.3
 Ene=      -0.4844
 Spin= Alpha
 Occup=    2.000000
1 0.0
2 0.0
3 0.0
4 0.0
5 0.038228260554648
6 0.0
7 0.0
8 0.056262924920450
9 0.0
10 0.0
11 0.0
12 0.0
13 0.0
14 0.65951349632522
15 0.0
16 0.0
17 0.47790760630748
18 0.0
 Sym=      1.2
 Ene=      -0.4844
 Spin= Alpha
 Occup=    2.000000
1 0.0
2 0.0
3 0.0
4 0.038228260554648
5 0.0
6 0.0
7 0.056262924920450
8 0.0
9 0.0
10 0.0
11 0.0
12 0.0
13 0.65951349632522
14 0.0
15 0.0
16 0.47790760630748
17 0.0
18 0.0
 Sym=      5.1
 Ene=      -0.4176
 Spin= Alpha
 Occup=    2.000000
1 0.011341211071840
2 -0.029282024777588
3 -0.036647848973113
4 0.0
5 0.0
6 0.59071561864996
7 0.0
8 0.0
9 0.42630332107520
10 0.030539762307973
11 -0.080844104180755
12 -0.12945424662175
13 0.0
14 0.0
15 -0.20005236198719
16 0.0
17 0.0
18 -0.15533170564116
 Sym=      2.3
 Ene=       0.0057
 Spin= Alpha
 Occup=    0.000000
1 0.0
2 0.0
3 0.0
4 0.0
5 0.50829921442771
6 0.0
7 0.0
8 0.61902356592973
9 0.0
10 0.0
11 0.0
12 0.0
13 0.0
14 -0.10129307311397
15 0.0
16 0.0
17 -0.083298267430580
18 0.0
 Sym=      2.2
 Ene=       0.0057
 Spin= Alpha
 Occup=    0.000000
1 0.0
2 0.0
3 0.0
4 0.50829921442771
5 0.0
6 0.0
7 0.61902356592973
8 0.0
9 0.0
10 0.0
11 0.0
12 0.0
13 -0.10129307311397
14 0.0
15 0.0
16 -0.083298267430580
17 0.0
18 0.0
 Sym=      6.1
 Ene=       0.1103
 Spin= Alpha
 Occup=    0.000000
1 -0.046999392053305
2 0.14219813160075
3 0.13331356123930
4 0.0
5 0.0
6 0.31436865666556
7 0.0
8 0.0
9 0.31064475638604
10 0.020716872450487
11 -0.050538780254614
12 -0.10389558840523
13 0.0
14 0.0
15 0.53908733945368
16 0.0
17 0.0
18 0.61956874926056
 Sym=      7.1
 Ene=       0.7067
 Spin= Alpha
 Occup=    0.000000
1 -0.051755994900603
2 1.04538292415792
3 -0.97028199881698
4 0.0
5 0.0
6 -0.78458139476166
7 0.0
8 0.0
9 0.93474982519905
10 0.005577512545079
11 0.023651126098404
12 -0.16840444955082
13 0.0
14 0.0
15 -0.067643482529106
16 0.0
17 0.0
18 0.14305882567146
 Sym=      3.2
 Ene=       0.7278
 Spin= Alpha
 Occup=    0.000000
1 0.0
2 0.0
3 0.0
4 1.10114700676830
5 0.0
6 0.0
7 -1.04528844720966
8 0.0
9 0.0
10 0.0
11 0.0
12 0.0
13 0.11039159944486
14 0.0
15 0.0
16 -0.007116833622625
17 0.0
18 0.0
 Sym=      3.3
 Ene=       0.7278
 Spin= Alpha
 Occup=    0.000000
1 0.0
2 0.0
3 0.0
4 0.0
5 1.10114700676830
6 0.0
7 0.0
8 -1.04528844720966
9 0.0
10 0.0
11 0.0
12 0.0
13 0.0
14 0.11039159944486
15 0.0
16 0.0
17 -0.007116833622625
18 0.0
 Sym=      8.1
 Ene=       0.8177
 Spin= Alpha
 Occup=    0.000000
1 -0.036867769126259
2 1.30000298572387
3 -1.41656067130308
4 0.0
5 0.0
6 0.67403745712696
7 0.0
8 0.0
9 -0.96891792382791
10 -0.052559261071918
11 0.26912537281945
12 0.14994333538200
13 0.0
14 0.0
15 -0.009330899326707
16 0.0
17 0.0
18 -0.41113492785337
 Sym=      4.3
 Ene=       1.2018
 Spin= Alpha
 Occup=    0.000000
1 0.0
2 0.0
3 0.0
4 0.0
5 0.13396588425628
6 0.0
7 0.0
8 -0.25222565793540
9 0.0
10 0.0
11 0.0
12 0.0
13 0.0
14 -0.94085290103473
15 0.0
16 0.0
17 1.07570941460620
18 0.0
 Sym=      4.2
 Ene=       1.2018
 Spin= Alpha
 Occup=    0.000000
1 0.0
2 0.0
3 0.0
4 0.13396588425628
5 0.0
6 0.0
7 -0.25222565793540
8 0.0
9 0.0
10 0.0
11 0.0
12 0.0
13 -0.94085290103473
14 0.0
15 0.0
16 1.07570941460620
17 0.0
18 0.0
 Sym=      9.1
 Ene=       1.2691
 Spin= Alpha
 Occup=    0.000000
1 -0.012601256149011
2 0.15569989337565
3 -0.066083723026403
4 0.0
5 0.0
6 0.18725174707586
7 0.0
8 0.0
9 -0.12153372469373
10 0.057913999741935
11 -0.80611071265086
12 0.82773334397543
13 0.0
14 0.0
15 -0.83600574171081
16 0.0
17 0.0
18 0.80997517639503
 Sym=     10.1
 Ene=       1.5402
 Spin= Alpha
 Occup=    0.000000
1 0.029016188826975
2 0.46063830699953
3 -0.83292541012769
4 0.0
5 0.0
6 0.078255748332368
7 0.0
8 0.0
9 -0.64832875925214
10 0.071723577565143
11 -1.30176923123708
12 1.57571048892779
13 0.0
14 0.0
15 0.59866758766554
16 0.0
17 0.0
18 -0.94722248999320
