[Molden Format]
[Molpro variables]
_NUMVAR=  891.0000000000000    
_AVOGAD= 0.6022136736000000E+24
_BOLTZ= 0.1380658000000000E-22
_CLIGHT=  29979245800.00000    
_EV= 0.3674932379085202E-01
_ENULL= 0.8854187817000000E-11
_KJOULE= 0.3808798324128737E-03
_KJOULE/MOL= 0.3808798324128737E-03
_CM= 0.4556335267302901E-05
_CM-1= 0.4556335267302901E-05
_DEB2SI= 0.3335641000000000E-29
_AMU2AU=  1822.888390000000    
_KCAL= 0.1593601117815568E-02
_KCAL/MOL= 0.1593601117815568E-02
_KELVIN= 0.3166811411060229E-05
_JOULE= 0.4359748200000000E-17
_HERTZ= 0.1519829846004524E-15
_HZ= 0.1519829846004524E-15
_JPCAL=  4.184000000000000    
_PLANCK= 0.6626075540000000E-33
_TOA= 0.5291772109200000    
_TOANG= 0.5291772109200000    
_TORAD= 0.1745329251994330E-01
_TOCM=  219474.6306700000    
_TODEBYE=  2.541580000000000    
_TOE= 0.4803242000000000E-09
_TOEV=  27.21138505000000    
_TOHERTZ=  6579683920729000.    
_TOHZ=  6579683920729000.    
_TOK=  315775.0400000000    
_TOKCAL=  627.5096000000000    
_TOKELVIN=  315775.0400000000    
_TOKJ=  2625.500000000000    
_TOKJOULE=  2625.500000000000    
_TOKG= 0.1660565586000000E-26
_ANG=  1.889726124565062    
_ANGSTROM=  1.889726124565062    
_RPAREF=  0.000000000000000    
_RPADISS=  0.000000000000000    
_IGNORE_UNDEF=  2.000000000000000    
_STRICTCHECK=  0.000000000000000    
_SEW_ONEEL=  0.000000000000000    
_CPPDONE=FALSE
_DKROLL_DONE=  0.000000000000000    
_FOCKDONE=TRUE
_GRADONE=FALSE
_HESSDONE=FALSE
_INTDONE=TRUE
_SCFDONE=TRUE
_MODUL_BLOCK=FALSE
_MODUL_CUDA=FALSE
_MODUL_SLATER=FALSE
_MODUL_MRCC=FALSE
_MODUL_NBO6=FALSE
_MODUL_NECI=TRUE
_MODUL_AIMS=TRUE
_MRCC_EXEC=
_FITC_AO_SAVED=FALSE
_FITC_MO_SAVED=FALSE
_SHARED_FS=TRUE
_LSTYP=SEWARD
_INTYP=INTS
_GEOMTYP=ZMAT
_GRADTYP=ALASKA
_DIRECT=FALSE
_DKHO= -1.000000000000000    
_SYNCM=  0.000000000000000    
_BASIS=6-31G
_ZORIENT=  1.000000000000000    
_NELEC=  16.00000000000000    
_SPIN=  2.000000000000000    
!SPIN=  2.000000000000000    
_QSDSTEP=  0.000000000000000    
_QSDIRC=  0.000000000000000    
_PROGRAM=HF-SCF
_CPUSTEP= 0.4000000000000004E-01
_SYSSTEP=  0.000000000000000    
_WALLSTEP= 0.4000000000000000E-01
!DFSCF=  0.000000000000000    
!SCSGRD=  0.000000000000000    
_BASINP=  610.0000000000000    
_CARTESIAN=TRUE
_CPUTOT=  1.180000000000000    
_CPUSORT= 0.1999999999999980E-01
_SYSSORT= 0.1000000000000001E-01
_WALLSORT= 0.3000000119209290E-01
_DFTEXFAC=  1.000000000000000    
_DMX=  0.000000000000000    
_DMY=  0.000000000000000    
_DMZ=  0.000000000000000    
_DMX_SCF=  0.000000000000000    
_DMY_SCF=  0.000000000000000    
_DMZ_SCF=  0.000000000000000    
_EHOMO=-0.5527408277232735    
_ELUMO= 0.4006520824133787    
_EIGS= -20.74845919011535    
_ENERGY= -149.5279954237573    
_ENERGY_METHOD=HF
_ENERGY_BASIS=6-31G
_GEOMETRY_METHOD=
_GEOMETRY_BASIS=
_ENUC=  28.04702323678283    
_GRADEXFAC=  9999.000000000000    
_GRADMETHOD=  2.000000000000000    
_NMRMETHOD=  0.000000000000000    
_NMRMAGNET=  0.000000000000000    
!GRID_FREEZE= -1.000000000000000    
_ITERATIONS=  9.000000000000000    
_LASTNELEC=  16.00000000000000    
_LASTSPIN=  2.000000000000000    
_LASTSYM=  4.000000000000000    
_MPP_PROG=  0.000000000000000    
_RS2PHASE=  0.000000000000000    
_NPROC_MPP=  1.000000000000000    
_NPROC_MPPX=  1.000000000000000    
_NPROC_SMP=  1.000000000000000    
_NUMSTEP=  0.000000000000000    
_ORBITAL=  2100.200000000000    
_PI=  3.141592653589793    
_SEIG_MIN= 0.2265777352919948E-01
_SEWPROP=TRUE
_STATUS=  1.000000000000000    
_SYSTOT=  1.620000000000000    
_VERSION=  2015001.000000000    
_WALLTOT=  2.820000000000000    
_DATE=12-Jan-22
_LASTORB=RHF
_MACHINE= 64 bit serial version
_OUTPUT=/home/jeremy/newCalcsForXray/O2triplet/integrals.xml
_PGROUP=D2h
_TIME=14:00:40
_LIBMOL=/shared/apps/quantum/molpro2015.1/lib/
_VIGRDC=  0.000000000000000    
!VIBCNT=  0.000000000000000    
!RGHFCNT=  0.000000000000000    
!SURFREC=  0.000000000000000    
!ROTREC=  0.000000000000000    
!POLYREC=  0.000000000000000    
!DIPREC=  0.000000000000000    
!DIP4DREC=  0.000000000000000    
!DIPROT=  0.000000000000000    
!DIP4DROT=  0.000000000000000    
!PTREC=  0.000000000000000    
!PT4DREC=  0.000000000000000    
!VSCFREC=  0.000000000000000    
!VCIREC=  0.000000000000000    
!PVCIREC=  0.000000000000000    
!VMP2REC=  0.000000000000000    
!VMCSCFREC=  0.000000000000000    
!VMRCIREC=  0.000000000000000    
!VIBSTATEREC=  0.000000000000000    
!VIBSTATECNT=  0.000000000000000    
!VIBINFO=  0.000000000000000    
!GAREC=  0.000000000000000    
!SCFORB=  21002.00000000000    
!NEWMOL= -1.000000000000000    
!NEWSYM= -1.000000000000000    
_SLFILES=slscratch
_NGSSTO=  9.000000000000000    
_SIN=SIN
_COS=COS
_TAN=TAN
_ACOS=ACOS
_ASIN=ASIN
_ATAN=ATAN
_COSH=COSH
_SINH=SINH
_TANH=TANH
_ABS=ABS
_MOD=MOD
_ERF=ERF
_REFC=REFC
_ERFC=ERFC
_HYPOT=HYPOT
_J0=J0
_J1=J1
_JN=JN
_GAMMA=GAMMA
_LGAMMA=LGAMMA
_Y0=Y0
_Y1=Y1
_YN=YN
_EXP=EXP
_LOG=LOG
_LOG10=LOG10
_SQRT=SQRT
_INT=INT
_NINT=NINT
_MAX=MAX
_MIN=MIN
_COSMO=  0.000000000000000    
_COSMOIT=  0.000000000000000    
_COSMOES=  0.000000000000000    
_COSMOEDS=  0.000000000000000    
_COSMOEC=  0.000000000000000    
_COSMOEDCORR=  0.000000000000000    
_FEPSI=  1.000000000000000    
_SL_IsMM=  0.000000000000000    
_SL_NSYM=  8.000000000000000    
_SL_System_BitSw=  0.000000000000000    
_SL_Unique_atoms=  0.000000000000000    
_SL_GRAD=  0.000000000000000    
_SL_MAXUPD_Hess=  5.000000000000000    
_SL_N_PRINT_COD=  5.000000000000000    
_SL_PRINT_CODES=  0.000000000000000    
_SL_BasType=  0.000000000000000    
_SL_Energy_Pred=  0.000000000000000    
_SL_New_Coords=  0.000000000000000    
_SL_Total_Nuclea=  0.000000000000000    
_SL_Highest_Mltp=  0.000000000000000    
_SL_Ref_Geom=  0.000000000000000    
_SL_Symmetry_ope=  1.000000000000000    
_SL_agrad=  0.000000000000000    
_SL_GrdMax=  0.000000000000000    
_SL_GrdNorm=  0.000000000000000    
_SL_GrdRMS=  0.000000000000000    
_SL_Hss_Q=  0.000000000000000    
_SL_Hss_X=  0.000000000000000    
_SL_BMxOld=  0.000000000000000    
_SL_KtB=  0.000000000000000    
_SL_TROld=  0.000000000000000    
_SL_No_of_Intern=  0.000000000000000    
_SL_Hess=  0.000000000000000    
_SL_K=  0.000000000000000    
!LATTICE= -1.000000000000000    
!NEWLATTICE=  0.000000000000000    
!LATGRAD_VAR=FALSE
!SEW_LATTICE=  1.000000000000000    
!LOCAL=  0.000000000000000    
!SAVEDOM= -1.000000000000000    
!RESTDOM= -1.000000000000000    
!SAVEDOM_HF= -1.000000000000000    
!RESTDOM_HF= -1.000000000000000    
!HESSREC=  0.000000000000000    
!FREQREC=  0.000000000000000    
!NMODREC=  0.000000000000000    
!GTASKS=  0.000000000000000    
!HTASKS=  0.000000000000000    
!SAVEDOM_EOM= -1.000000000000000    
!RESTDOM_EOM= -1.000000000000000    
!GRADSTATE= -1.000000000000000    
!THRCHG= 0.1000000000000000    
!DEBUG= -1.000000000000000    
!CFIT_CPHF=  0.000000000000000    
!RDOMAUX_CPHF=  3.000000000000000    
!THRAO_CPHF= 0.1000000000000000E-09
!THRMO_CPHF= 0.1000000000000000E-08
!THROV_CPHF= 0.1000000000000000E-11
!THRSW_CPHF= 0.1000000000000000E-09
!THRPROD_CPHF= 0.1000000000000000E-08
!THRAOPR_CPHF= 0.1000000000000000E-11
!CFIT_SCFGRD=  0.000000000000000    
!RDOMAUX_SCFGRD=  5.000000000000000    
!THRAO_SCFGRD= 0.1000000000000000E-09
!THRMO_SCFGRD= 0.1000000000000000E-08
!THROV_SCFGRD= 0.1000000000000000E-11
!THRSW_SCFGRD= 0.1000000000000000E-09
!THRPROD_SCFGRD= 0.1000000000000000E-08
!THRAOPR_SCFGRD= 0.1000000000000000E-11
!LOCFIT_SCF=  0.000000000000000    
!LOCFIT_MP2= -1.000000000000000    
_RIDOM=  0.000000000000000    
!CC2_METHOD=  0.000000000000000    
_BASIS2006=FALSE
_SVDDEL= -1.000000000000000    
_SVDDELA= -1.000000000000000    
_SVDDELP= -1.000000000000000    
_SVDDELF= -1.000000000000000    
_SVDDELS= -1.000000000000000    
_SVDDEL_ABS= -1.000000000000000    
_SVDDELA_ABS= -1.000000000000000    
_SVDDELP_ABS= -1.000000000000000    
_SVDDELF_ABS= -1.000000000000000    
_SVDDELS_ABS= -1.000000000000000    
_MAXBASIS=  0.000000000000000    
!OPT_CONICAL=  0.000000000000000    
!CLEARSP_JGRID=  0.000000000000000    
_GRDHYBR=  0.000000000000000    
_STATEGRAD=  1.000000000000000    
_4EXT_NDISKS=  1.000000000000000    
!ZMP=  0.000000000000000    
_MAXIT_ZMP=  500.0000000000000    
_MAXDIS_ZMP=  100.0000000000000    
_ACCU_ZMP=  14.00000000000000    
_SHIFTA_ZMP= -100.0000000000000    
!EMBEDFLAG=  1.000000000000000    
!EMBED=FALSE
!EMBED_F12=FALSE
!EMBEDNUC=  0.000000000000000    
_EMBEDENERGY=  0.000000000000000    
_KSPACETIME=  0.000000000000000    
_RSPACETIME=  0.000000000000000    
!EMBED_DFC=FALSE
!NUM_VOIDS=  0.000000000000000    
_IBODY=  0.000000000000000    
_EMBE_TOTAL=  0.000000000000000    
_EMBE_HF=  0.000000000000000    
_EMBE_CORR=  0.000000000000000    
!EMBED_PROJ=FALSE
!EMBED_TRUNC=  0.000000000000000    
!EMB_PROJ_ZMU=  1000000.000000000    
!CORRECTION=  0.000000000000000    
!CORRECTION_HF=  0.000000000000000    
!EMBED_ENERGY=  0.000000000000000    
!EMBED_NAXC=FALSE
!EMBED_AORB=  0.000000000000000    
!EMBED_NACORR=  0.000000000000000    
!EMBED_MP2=FALSE
!EMBED_TRUNC_PERTURBATION=FALSE
!EMBED_FROZEN=  0.000000000000000    
_CHANGE_BASIS=FALSE
_RESTORE_BASIS=FALSE
_FIX_EMBED_GUESS=FALSE
!EDFT=  0.000000000000000    
_IFASTLATGRAD=  0.000000000000000    
_SINDEX=  0.000000000000000    
_AVDOM_OSV=  0.000000000000000    
_AVDOM_PNO=  0.000000000000000    
_AVDOM_PAO=  0.000000000000000    
_AVDOM_LMO=  0.000000000000000    
_CC2OSV_FLAG=  0.000000000000000    
_TMADC2_FLAG=FALSE
_PROPADC2_FLAG=FALSE
_LEN_VirQ=  0.000000000000000    
_GRDCC2LR_FLAG=FALSE
_GRDADC2_FLAG=FALSE
R1=  1.207520000000000    
GX1=  0.000000000000000    
GY1=  0.000000000000000    
GZ1= -1.140941044967402    
GX2=  0.000000000000000    
GY2=  0.000000000000000    
GZ2=  1.140941044967402    
[Atoms] Angs
O     1    8         0.0000000000        0.0000000000       -0.6037600000
O     2    8         0.0000000000        0.0000000000        0.6037600000
[GTO]
   1 0
 s    6  1.00
  0.5484671700D+04  0.1831074396D-02
  0.8252349500D+03  0.1395017197D-01
  0.1880469600D+03  0.6844507786D-01
  0.5296450000D+02  0.2327143395D+00
  0.1689757000D+02  0.4701928990D+00
  0.5799635300D+01  0.3585208493D+00
 s    3  1.00
  0.1553961600D+02 -0.1107775519D+00
  0.3599933600D+01 -0.1480262626D+00
  0.1013761800D+01  0.1130767020D+01
 s    1  1.00
  0.2700058200D+00  0.1000000000D+01
 p    3  1.00
  0.1553961600D+02  0.7087426737D-01
  0.3599933600D+01  0.3397528370D+00
  0.1013761800D+01  0.7271585736D+00
 p    1  1.00
  0.2700058200D+00  0.1000000000D+01
  
   2 0
 s    6  1.00
  0.5484671700D+04  0.1831074396D-02
  0.8252349500D+03  0.1395017197D-01
  0.1880469600D+03  0.6844507786D-01
  0.5296450000D+02  0.2327143395D+00
  0.1689757000D+02  0.4701928990D+00
  0.5799635300D+01  0.3585208493D+00
 s    3  1.00
  0.1553961600D+02 -0.1107775519D+00
  0.3599933600D+01 -0.1480262626D+00
  0.1013761800D+01  0.1130767020D+01
 s    1  1.00
  0.2700058200D+00  0.1000000000D+01
 p    3  1.00
  0.1553961600D+02  0.7087426737D-01
  0.3599933600D+01  0.3397528370D+00
  0.1013761800D+01  0.7271585736D+00
 p    1  1.00
  0.2700058200D+00  0.1000000000D+01
 
 
[MO]
 Sym=      1.1
 Ene=     -20.7485
 Spin= Alpha
 Occup=    2.000000
1 0.70418600415640
2 0.014568594293622
3 -0.002775402724527
4 0.0
5 0.0
6 0.001380068315256
7 0.0
8 0.0
9 -0.000816767652039
10 0.70418600415640
11 0.014568594293622
12 -0.002775402724527
13 0.0
14 0.0
15 -0.001380068315256
16 0.0
17 0.0
18 0.000816767652039
 Sym=      1.5
 Ene=     -20.7476
 Spin= Alpha
 Occup=    2.000000
1 0.70418612098542
2 0.015466173826371
3 -0.008675794462608
4 0.0
5 0.0
6 0.001715129862043
7 0.0
8 0.0
9 -0.003767287003227
10 -0.70418612098542
11 -0.015466173826371
12 0.008675794462608
13 0.0
14 0.0
15 0.001715129862043
16 0.0
17 0.0
18 -0.003767287003227
 Sym=      2.1
 Ene=      -1.6901
 Spin= Alpha
 Occup=    2.000000
1 -0.15394622944009
2 0.36653408558329
3 0.23905673079917
4 0.0
5 0.0
6 0.17722290446214
7 0.0
8 0.0
9 0.041503850122342
10 -0.15394622944009
11 0.36653408558329
12 0.23905673079917
13 0.0
14 0.0
15 -0.17722290446214
16 0.0
17 0.0
18 -0.041503850122342
 Sym=      2.5
 Ene=      -1.1011
 Spin= Alpha
 Occup=    2.000000
1 -0.16401418692711
2 0.39168777219338
3 0.50849490650146
4 0.0
5 0.0
6 -0.12720873433515
7 0.0
8 0.0
9 0.000621455145011
10 0.16401418692711
11 -0.39168777219338
12 -0.50849490650146
13 0.0
14 0.0
15 -0.12720873433515
16 0.0
17 0.0
18 0.000621455145011
 Sym=      3.1
 Ene=      -0.7237
 Spin= Alpha
 Occup=    2.000000
1 0.055121735507588
2 -0.11033578785762
3 -0.25924867927491
4 0.0
5 0.0
6 0.47314029791847
7 0.0
8 0.0
9 0.23079766011415
10 0.055121735507588
11 -0.11033578785762
12 -0.25924867927491
13 0.0
14 0.0
15 -0.47314029791847
16 0.0
17 0.0
18 -0.23079766011415
 Sym=      1.3
 Ene=      -0.7159
 Spin= Alpha
 Occup=    2.000000
1 0.0
2 0.0
3 0.0
4 0.0
5 0.45247617235235
6 0.0
7 0.0
8 0.28090811908420
9 0.0
10 0.0
11 0.0
12 0.0
13 0.0
14 0.45247617235235
15 0.0
16 0.0
17 0.28090811908420
18 0.0
 Sym=      1.2
 Ene=      -0.7159
 Spin= Alpha
 Occup=    2.000000
1 0.0
2 0.0
3 0.0
4 0.45247617235234
5 0.0
6 0.0
7 0.28090811908420
8 0.0
9 0.0
10 0.0
11 0.0
12 0.0
13 0.45247617235234
14 0.0
15 0.0
16 0.28090811908420
17 0.0
18 0.0
 Sym=      1.7
 Ene=      -0.5527
 Spin= Alpha
 Occup=    1.000000
1 0.0
2 0.0
3 0.0
4 0.0
5 0.54444369870053
6 0.0
7 0.0
8 0.38348091091343
9 0.0
10 0.0
11 0.0
12 0.0
13 0.0
14 -0.54444369870053
15 0.0
16 0.0
17 -0.38348091091343
18 0.0
 Sym=      1.6
 Ene=      -0.5527
 Spin= Alpha
 Occup=    1.000000
1 0.0
2 0.0
3 0.0
4 0.54444369870053
5 0.0
6 0.0
7 0.38348091091342
8 0.0
9 0.0
10 0.0
11 0.0
12 0.0
13 -0.54444369870053
14 0.0
15 0.0
16 -0.38348091091342
17 0.0
18 0.0
 Sym=      3.5
 Ene=       0.4007
 Spin= Alpha
 Occup=    0.000000
1 -0.093022118407784
2 0.22846976776326
3 1.28571548036341
4 0.0
5 0.0
6 0.45903820707742
7 0.0
8 0.0
9 1.21185254883713
10 0.093022118407784
11 -0.22846976776326
12 -1.28571548036341
13 0.0
14 0.0
15 0.45903820707742
16 0.0
17 0.0
18 1.21185254883713
 Sym=      2.2
 Ene=       1.0217
 Spin= Alpha
 Occup=    0.000000
1 0.0
2 0.0
3 0.0
4 -0.68029402569745
5 0.0
6 0.0
7 0.62186837552411
8 0.0
9 0.0
10 0.0
11 0.0
12 0.0
13 -0.68029402569745
14 0.0
15 0.0
16 0.62186837552411
17 0.0
18 0.0
 Sym=      2.3
 Ene=       1.0217
 Spin= Alpha
 Occup=    0.000000
1 0.0
2 0.0
3 0.0
4 0.0
5 -0.68029402569745
6 0.0
7 0.0
8 0.62186837552411
9 0.0
10 0.0
11 0.0
12 0.0
13 0.0
14 -0.68029402569745
15 0.0
16 0.0
17 0.62186837552411
18 0.0
 Sym=      4.5
 Ene=       1.0821
 Spin= Alpha
 Occup=    0.000000
1 -0.019981368482773
2 0.14894750776184
3 0.85826544549782
4 0.0
5 0.0
6 -0.70903358397321
7 0.0
8 0.0
9 1.30970716899144
10 0.019981368482773
11 -0.14894750776184
12 -0.85826544549782
13 0.0
14 0.0
15 -0.70903358397321
16 0.0
17 0.0
18 1.30970716899144
 Sym=      4.1
 Ene=       1.1129
 Spin= Alpha
 Occup=    0.000000
1 -0.060580109560707
2 0.66275052057933
3 -0.74020043071356
4 0.0
5 0.0
6 -0.47328473160521
7 0.0
8 0.0
9 0.60957573201140
10 -0.060580109560707
11 0.66275052057933
12 -0.74020043071356
13 0.0
14 0.0
15 0.47328473160521
16 0.0
17 0.0
18 -0.60957573201140
 Sym=      2.7
 Ene=       1.1338
 Spin= Alpha
 Occup=    0.000000
1 0.0
2 0.0
3 0.0
4 0.0
5 -0.62490175410157
6 0.0
7 0.0
8 1.07477172341158
9 0.0
10 0.0
11 0.0
12 0.0
13 0.0
14 0.62490175410157
15 0.0
16 0.0
17 -1.07477172341158
18 0.0
 Sym=      2.6
 Ene=       1.1338
 Spin= Alpha
 Occup=    0.000000
1 0.0
2 0.0
3 0.0
4 -0.62490175410157
5 0.0
6 0.0
7 1.07477172341158
8 0.0
9 0.0
10 0.0
11 0.0
12 0.0
13 0.62490175410157
14 0.0
15 0.0
16 -1.07477172341158
17 0.0
18 0.0
 Sym=      5.1
 Ene=       1.2269
 Spin= Alpha
 Occup=    0.000000
1 -0.039380748208351
2 0.86404652533744
3 -0.54426347640393
4 0.0
5 0.0
6 0.42173421614392
7 0.0
8 0.0
9 -0.61608281029071
10 -0.039380748208351
11 0.86404652533744
12 -0.54426347640393
13 0.0
14 0.0
15 -0.42173421614392
16 0.0
17 0.0
18 0.61608281029071
 Sym=      5.5
 Ene=       1.6712
 Spin= Alpha
 Occup=    0.000000
1 0.025069199741879
2 -1.24869116804179
3 3.57382569994207
4 0.0
5 0.0
6 -0.087724381323982
7 0.0
8 0.0
9 1.82022934322854
10 -0.025069199741879
11 1.24869116804179
12 -3.57382569994207
13 0.0
14 0.0
15 -0.087724381323982
16 0.0
17 0.0
18 1.82022934322854
