
 Primary working directories    : /data/jeremy_105878_molpro
 Secondary working directories  : /data/jeremy_105878_molpro
 Wavefunction directory         : /home/jeremy/hpc7CISDTetc/largerfcitest/vdz2FrozCartesian/wfu/
 Main file repository           : /data/jeremy_105878_molpro/

 SHA1      : 41aa48e1468dac041f2eaabdf410f3ce2ee7f8bf
 NAME      : 2015.1.0
 ARCHNAME  : linux/x86_64
 FC        : /opt/intel/composer_xe_2015.1.133/bin/intel64/ifort
 BLASLIB   : -Wl,-_start-group /opt/intel/mkl/lib/intel64/libmkl_intel_ilp64.a /opt/intel/mkl/lib/intel64/libmkl_sequential.a /opt/intel/mkl/lib/intel64/libmkl_core.a -Wl,-_end-group
 id        : hw

 Nodes     nprocs
 compute01    1

 Using customized tuning parameters: mindgm=1; mindgv=20; mindgc=4; mindgr=1; noblas=0; minvec=7
 default implementation of scratch files=df  

  ***,CO
  memory, 250,m
  basis=vdz
 cartesian
 R1=2.1316
  geometry={C;O,C,R1}
  hf
  put,molden,CO_vdz_cart.molden;
  {FCI;CORE;DUMP}

 Variables initialized (889), CPU time= 0.01 sec
 Commands  initialized (702), CPU time= 0.02 sec, 572 directives.
 Default parameters read. Elapsed time= 5.65 sec

 Checking input...
 Passed
1


                                         ***  PROGRAM SYSTEM MOLPRO  ***
                                       Copyright, TTI GmbH Stuttgart, 2015
                                    Version 2015.1 linked Nov 13 2015 17:13:29


 **********************************************************************************************************************************
 LABEL *                                                                                 
  64 bit serial version                                                                  DATE: 07-Dec-21          TIME: 14:23:30  
 **********************************************************************************************************************************

 SHA1:             41aa48e1468dac041f2eaabdf410f3ce2ee7f8bf
 **********************************************************************************************************************************

 Variable memory set to  250000000 words,  buffer space   230000 words

 SETTING BASIS          =    VDZ
 SETTING R1             =         2.13160000                                  


 Recomputing integrals since basis changed


 Using cartesian basis functions

 Library entry C      S cc-pVDZ              selected for orbital group  1
 Library entry C      P cc-pVDZ              selected for orbital group  1
 Library entry C      D cc-pVDZ              selected for orbital group  1
 Library entry O      S cc-pVDZ              selected for orbital group  2
 Library entry O      P cc-pVDZ              selected for orbital group  2
 Library entry O      D cc-pVDZ              selected for orbital group  2

1PROGRAM * SEWARD (Integral evaluation for generally contracted gaussian basis sets)     Author: Roland Lindh, 1990

 Geometry written to block  1 of record 700

 Orientation using atomic masses  
 Molecule type: Linear
 Symmetry elements: X,Y
 Rotational constants:      57.8948519     57.8948519      0.0000000 GHz  (calculated with average atomic masses)

 Point group  C2v 



 ATOMIC COORDINATES

 NR  ATOM    CHARGE       X              Y              Z

   1  C       6.00    0.000000000    0.000000000   -1.217559229
   2  O       8.00    0.000000000    0.000000000    0.914040771

 Bond lengths in Bohr (Angstrom)

 1-2  2.131600000
     ( 1.127994143)

 NUCLEAR CHARGE:                   14
 NUMBER OF PRIMITIVE AOS:          54
 NUMBER OF SYMMETRY AOS:           54
 NUMBER OF CONTRACTIONS:           30   (  16A1  +   6B1  +   6B2  +   2A2  )
 NUMBER OF CORE ORBITALS:           2   (   2A1  +   0B1  +   0B2  +   0A2  )
 NUMBER OF VALENCE ORBITALS:        8   (   4A1  +   2B1  +   2B2  +   0A2  )


 NUCLEAR REPULSION ENERGY   22.51829612

 Eigenvalues of metric

         1 0.131E-01 0.300E-01 0.498E-01 0.857E-01 0.113E+00 0.145E+00 0.244E+00 0.573E+00
         2 0.139E+00 0.188E+00 0.390E+00 0.111E+01 0.136E+01 0.282E+01
         3 0.139E+00 0.188E+00 0.390E+00 0.111E+01 0.136E+01 0.282E+01
         4 0.859E+00 0.114E+01


 Contracted 2-electron integrals neglected if value below      1.0D-11
 AO integral compression algorithm  1   Integral accuracy      1.0D-11

     0.524 MB (compressed) written to integral file ( 91.6%)


 NUMBER OF SORTED TWO-ELECTRON INTEGRALS:      33301.     BUFFER LENGTH:  32768
 NUMBER OF SEGMENTS:   1  SEGMENT LENGTH:      33301      RECORD LENGTH: 524288

 Memory used in sort:       0.59 MW

 SORT1 READ       43723. AND WROTE       31145. INTEGRALS IN      1 RECORDS. CPU TIME:     0.00 SEC, REAL TIME:     0.01 SEC
 SORT2 READ       31145. AND WROTE       33301. INTEGRALS IN      2 RECORDS. CPU TIME:     0.00 SEC, REAL TIME:     0.01 SEC

 FILE SIZES:   FILE 1:    16.9 MBYTE,  FILE 4:     4.2 MBYTE,   TOTAL:     21.2 MBYTE

 OPERATOR DM      FOR CENTER  0  COORDINATES:    0.000000    0.000000    0.000000


 **********************************************************************************************************************************
 DATASETS  * FILE   NREC   LENGTH (MB)   RECORD NAMES
              1      19       16.60       500      610      700      900      950      970     1000      129      960     1100   
                                          VAR    BASINP    GEOM    SYMINP    ZMAT    AOBASIS   BASIS     P2S    ABASIS      S 
                                         1400     1410     1200     1210     1080     1600     1650     1300     1700   
                                           T        V       H0       H01     AOSYM     SMH    MOLCAS    ERIS     OPER   

 PROGRAMS   *        TOTAL       INT
 CPU TIMES  *         0.41      0.18
 REAL TIME  *         6.61 SEC
 DISK USED  *        21.43 MB      
 **********************************************************************************************************************************

1PROGRAM * RHF-SCF (CLOSED SHELL)       Authors: W. Meyer, H.-J. Werner


 NUMBER OF ELECTRONS:       7+    7-
 CONVERGENCE THRESHOLDS:    1.00E-05 (Density)    1.00E-07 (Energy)
 MAX. NUMBER OF ITERATIONS:       60
 INTERPOLATION TYPE:            DIIS
 INTERPOLATION STEPS:              2 (START)      1 (STEP)
 LEVEL SHIFTS:                  0.00 (CLOSED)  0.00 (OPEN) 



 Orbital guess generated from atomic densities. Full valence occupancy:    6   2   2   0

 Molecular orbital dump at record        2100.2

 Initial occupancy:   5   1   1   0

 ITERATION    DDIFF          GRAD             ENERGY        2-EL.EN.            DIPOLE MOMENTS         DIIS   ORB.
    1      0.000D+00      0.000D+00      -112.73123366    125.548454    0.00000    0.00000   -0.22735    0    start
    2      0.000D+00      0.187D-01      -112.74315281    125.284945    0.00000    0.00000    0.14927    1    diag
    3      0.516D-01      0.116D-01      -112.74940495    125.972431    0.00000    0.00000   -0.10264    2    diag
    4      0.173D-01      0.253D-02      -112.74969663    125.793561    0.00000    0.00000   -0.08528    3    diag
    5      0.370D-02      0.314D-03      -112.74970670    125.804895    0.00000    0.00000   -0.08856    4    diag
    6      0.114D-02      0.453D-04      -112.74970693    125.806376    0.00000    0.00000   -0.08961    5    diag
    7      0.149D-03      0.704D-05      -112.74970694    125.806261    0.00000    0.00000   -0.08961    6    diag
    8      0.193D-04      0.142D-05      -112.74970694    125.806244    0.00000    0.00000   -0.08962    7    diag
    9      0.385D-05      0.331D-06      -112.74970694    125.806231    0.00000    0.00000   -0.08961    0    orth

 Final occupancy:   5   1   1   0

 !RHF STATE 1.1 Energy               -112.749706938173
 Nuclear energy                        22.51829612
 One-electron energy                 -198.17111848
 Two-electron energy                   62.90311543
 Virial quotient                       -1.00205501
 !RHF STATE 1.1 Dipole moment           0.00000000     0.00000000    -0.08961124
 Dipole moment /Debye                   0.00000000     0.00000000    -0.22775412

 Orbital energies:

         1.1          2.1          3.1          4.1          5.1          6.1          7.1
    -20.671302   -11.367339    -1.523134    -0.802387    -0.548997     0.379762     0.650144

         1.2          2.2          3.2
     -0.634643     0.154506     0.672050

         1.3          2.3          3.3
     -0.634643     0.154506     0.672050

         1.4          2.4
      1.344053     2.937097

 HOMO      5.1    -0.548997 =     -14.9390eV
 LUMO      2.2     0.154506 =       4.2043eV
 LUMO-HOMO         0.703502 =      19.1433eV


 **********************************************************************************************************************************
 DATASETS  * FILE   NREC   LENGTH (MB)   RECORD NAMES
              1      19       16.60       500      610      700      900      950      970     1000      129      960     1100   
                                          VAR    BASINP    GEOM    SYMINP    ZMAT    AOBASIS   BASIS     P2S    ABASIS      S 
                                         1400     1410     1200     1210     1080     1600     1650     1300     1700   
                                           T        V       H0       H01     AOSYM     SMH    MOLCAS    ERIS     OPER   

              2       4        0.37       700     1000      520     2100   
                                         GEOM     BASIS   MCVARS     RHF  

 PROGRAMS   *        TOTAL        HF       INT
 CPU TIMES  *         0.42      0.01      0.18
 REAL TIME  *         6.65 SEC
 DISK USED  *        21.43 MB      
 **********************************************************************************************************************************

 Dump information in style MOLDEN to co_vdz_cart.molden                                                              

 Molecular orbitals read from record     2100.2  Type=RHF/CANONICAL (state 1.1)
 Occupation numbers read from record     2100.2  Type=RHF/RHF (state 1.1)
 Orbital energies read from record       2100.2  Type=RHF/CANONICAL (state 1.1)
 Redundancy group numbers read from rec  2100.2  Type=RHF/RHF (state 1.1)
 
 DUMP ORBITAL  1.1 AS ORBITAL    1  occ=    2.0000  eig=  -20.6713  GROUP=   2
 DUMP ORBITAL  2.1 AS ORBITAL    2  occ=    2.0000  eig=  -11.3673  GROUP=   2
 DUMP ORBITAL  3.1 AS ORBITAL    3  occ=    2.0000  eig=   -1.5231  GROUP=   2
 DUMP ORBITAL  4.1 AS ORBITAL    4  occ=    2.0000  eig=   -0.8024  GROUP=   2
 DUMP ORBITAL  1.3 AS ORBITAL    5  occ=    2.0000  eig=   -0.6346  GROUP=   2
 DUMP ORBITAL  1.2 AS ORBITAL    6  occ=    2.0000  eig=   -0.6346  GROUP=   2
 DUMP ORBITAL  5.1 AS ORBITAL    7  occ=    2.0000  eig=   -0.5490  GROUP=   2

 Total charge:      14.000000

 **********************************************************************************************************************************

1PROGRAM * FCI (Full CI)     Author: P.J. Knowles, 1984

 ***  Initialisation ***
 
 Molecular orbitals read from record     2100.2  Type=RHF/CANONICAL (state 1.1)
 
 Frozen orbitals:              0 (  0  0  0  0  0  0  0  0)
 Active orbitals:             30 ( 16  6  6  2  0  0  0  0)
 Active electrons:            14
 Spin quantum number:          0.0

 Transformed integrals will be written to file FCIDUMP (relative to TMPDIR)
 File format: FCIDUMP.

 Load integrals                0.4 sec
 Transform integrals           0.5 sec
 Storage for integrals:          62543
 Remaining memory:           249934657

 Core energy:              22.51829612
 Run Hamiltonian processor DUMP    
 Symmetry:                   1
 Trial vector:                  0.00
 Result vector:                 0.00
 Maximum iterations:           90
 Convergence threshold:         0.0000100
 RHS vector:                    0.00
 Hamiltonian shift:             0.0000000
 Output threshold:              0.0500000
 Options:                        0
 Number of roots:             1


 **********************************************************************************************************************************
 DATASETS  * FILE   NREC   LENGTH (MB)   RECORD NAMES
              1      19       16.60       500      610      700      900      950      970     1000      129      960     1100   
                                          VAR    BASINP    GEOM    SYMINP    ZMAT    AOBASIS   BASIS     P2S    ABASIS      S 
                                         1400     1410     1200     1210     1080     1600     1650     1300     1700   
                                           T        V       H0       H01     AOSYM     SMH    MOLCAS    ERIS     OPER   

              2       4        0.37       700     1000      520     2100   
                                         GEOM     BASIS   MCVARS     RHF  

 PROGRAMS   *        TOTAL       FCI        HF       INT
 CPU TIMES  *         0.49      0.06      0.01      0.18
 REAL TIME  *         6.79 SEC
 DISK USED  *        21.43 MB      
 **********************************************************************************************************************************

 FCI/cc-pVDZ energy=      0.000000000000

        HF-SCF  
   -112.74970694
 **********************************************************************************************************************************
 Variable memory released
