
 Primary working directories    : inputs/
 Secondary working directories  : inputs/
 Wavefunction directory         : /home/AndresMoreno/wfu/
 Main file repository           : /cygdrive/e/PyXCAT/inputs/

 SHA1      : c1a8c69cbe265860639293024702cdb9dae59da4
 NAME      : 2012.1.22
 ARCHNAME  : CYGWIN/x86_64
 FC        : /usr/bin/gfortran
 FCVERSION : 10.2.0
 BLASLIB   : 
 id        : edinburgh

 Nodes          nprocs
 DESKTOP-3AJVF3T    1

 Using customized tuning parameters: mindgm=1; mindgv=20; mindgc=4; mindgr=1; noblas=0; minvec=7
 default implementation of scratch files=df  

 ***,scattering calculation in PYXCAT
 gprint,civector,angles=-1,distance=-1
 gthresh,twoint=1.0d-13
 gthresh,energy=1.0d-7,gradient=1.0d-4
 gthresh,thrpun=0.0001
 punch,molpro.pun,new
 basis=aug-cc-pvdz
 symmetry,nosym;
 orient,mass;
 Angstrom;
 geomtype=xyz;
 geometry={
 2
 H 0.7 0.0 0.0
 H 0.0 0.0 0.0
 }
 hf
 
 {multi,failsafe;
 maxiter,40;
 occ,4
 closed,0
 wf,2,1,0
 state,2
 pspace,10.0
 orbital,2140.3;
 ORBITAL,IGNORE_ERROR;
 ciguess,2501.2
 save,ci=2501.2}
 put, molden, molpro.mld

 Variables initialized (782), CPU time= 0.00 sec
 Commands  initialized (547), CPU time= 0.00 sec, 517 directives.
 Default parameters read. Elapsed time= 0.04 sec

 Checking input...
 Passed
1


                                         ***  PROGRAM SYSTEM MOLPRO  ***
                         Copyright, University College Cardiff Consultants Limited, 2008

                                    Version 2012.1 linked Apr  6 2021 02:04:02


 **********************************************************************************************************************************
 LABEL *   scattering calculation in PYXCAT                                              
 CYGWIN_NT-10.0-19042-3.2.0-340.x86_64/DESKTOP-3AJVF3T(x86_64) 64 bit serial version     DATE: 06-Jul-21          TIME: 14:50:31  
 **********************************************************************************************************************************

 SHA1:             c1a8c69cbe265860639293024702cdb9dae59da4
 **********************************************************************************************************************************


 THRESHOLDS:

 ZERO    =  1.00D-12  ONEINT  =  1.00D-12  TWOINT  =  1.00D-13  PREFAC  =  1.00D-14  LOCALI  =  1.00D-09  EORDER  =  1.00D-04
 ENERGY  =  0.00D+00  ETEST   =  0.00D+00  EDENS   =  0.00D+00  THRDEDEF=  1.00D-06  GRADIENT=  1.00D-02  STEP    =  1.00D-03
 ORBITAL =  1.00D-05  CIVEC   =  1.00D-05  COEFF   =  1.00D-04  PRINTCI =  5.00D-02  PUNCHCI =  9.90D+01  OPTGRAD =  3.00D-04
 OPTENERG=  1.00D-06  OPTSTEP =  3.00D-04  THRGRAD =  1.00D-10  COMPRESS=  1.00D-11  VARMIN  =  1.00D-07  VARMAX  =  1.00D-03
 THRDOUB =  0.00D+00  THRDIV  =  1.00D-05  THRRED  =  1.00D-07  THRPSP  =  1.00D+00  THRDC   =  1.00D-10  THRCS   =  1.00D-10
 THRNRM  =  1.00D-08  THREQ   =  0.00D+00  THRDE   =  1.00D+00  THRREF  =  1.00D-05  SPARFAC =  1.00D+00  THRDLP  =  1.00D-07
 THRDIA  =  1.00D-10  THRDLS  =  1.00D-07  THRGPS  =  0.00D+00  THRKEX  =  0.00D+00  THRDIS  =  2.00D-01  THRVAR  =  1.00D-10
 THRLOC  =  1.00D-06  THRGAP  =  1.00D-06  THRLOCT = -1.00D+00  THRGAPT = -1.00D+00  THRORB  =  1.00D-06  THRMLTP =  0.00D+00
 THRCPQCI=  1.00D-10  KEXTA   =  0.00D+00  THRCOARS=  0.00D+00  SYMTOL  =  1.00D-06  GRADTOL =  1.00D-06  THROVL  =  1.00D-08
 THRORTH =  1.00D-08  GRID    =  1.00D-06  GRIDMAX =  1.00D-03  DTMAX   =  0.00D+00  THROCCDE=  1.00D-01  THROCCDE=  1.00D-01



 THRESHOLDS:

 ZERO    =  1.00D-12  ONEINT  =  1.00D-12  TWOINT  =  1.00D-13  PREFAC  =  1.00D-14  LOCALI  =  1.00D-09  EORDER  =  1.00D-04
 ENERGY  =  1.00D-07  ETEST   =  0.00D+00  EDENS   =  0.00D+00  THRDEDEF=  1.00D-06  GRADIENT=  1.00D-04  STEP    =  1.00D-03
 ORBITAL =  1.00D-05  CIVEC   =  1.00D-05  COEFF   =  1.00D-04  PRINTCI =  5.00D-02  PUNCHCI =  9.90D+01  OPTGRAD =  3.00D-04
 OPTENERG=  1.00D-06  OPTSTEP =  3.00D-04  THRGRAD =  1.00D-10  COMPRESS=  1.00D-11  VARMIN  =  1.00D-07  VARMAX  =  1.00D-03
 THRDOUB =  0.00D+00  THRDIV  =  1.00D-05  THRRED  =  1.00D-07  THRPSP  =  1.00D+00  THRDC   =  1.00D-10  THRCS   =  1.00D-10
 THRNRM  =  1.00D-08  THREQ   =  0.00D+00  THRDE   =  1.00D+00  THRREF  =  1.00D-05  SPARFAC =  1.00D+00  THRDLP  =  1.00D-07
 THRDIA  =  1.00D-10  THRDLS  =  1.00D-07  THRGPS  =  0.00D+00  THRKEX  =  0.00D+00  THRDIS  =  2.00D-01  THRVAR  =  1.00D-10
 THRLOC  =  1.00D-06  THRGAP  =  1.00D-06  THRLOCT = -1.00D+00  THRGAPT = -1.00D+00  THRORB  =  1.00D-06  THRMLTP =  0.00D+00
 THRCPQCI=  1.00D-10  KEXTA   =  0.00D+00  THRCOARS=  0.00D+00  SYMTOL  =  1.00D-06  GRADTOL =  1.00D-06  THROVL  =  1.00D-08
 THRORTH =  1.00D-08  GRID    =  1.00D-06  GRIDMAX =  1.00D-03  DTMAX   =  0.00D+00  THROCCDE=  1.00D-01  THROCCDE=  1.00D-01



 THRESHOLDS:

 ZERO    =  1.00D-12  ONEINT  =  1.00D-12  TWOINT  =  1.00D-13  PREFAC  =  1.00D-14  LOCALI  =  1.00D-09  EORDER  =  1.00D-04
 ENERGY  =  1.00D-07  ETEST   =  0.00D+00  EDENS   =  0.00D+00  THRDEDEF=  1.00D-06  GRADIENT=  1.00D-04  STEP    =  1.00D-03
 ORBITAL =  1.00D-05  CIVEC   =  1.00D-05  COEFF   =  1.00D-04  PRINTCI =  5.00D-02  PUNCHCI =  1.00D-04  OPTGRAD =  3.00D-04
 OPTENERG=  1.00D-06  OPTSTEP =  3.00D-04  THRGRAD =  1.00D-10  COMPRESS=  1.00D-11  VARMIN  =  1.00D-07  VARMAX  =  1.00D-03
 THRDOUB =  0.00D+00  THRDIV  =  1.00D-05  THRRED  =  1.00D-07  THRPSP  =  1.00D+00  THRDC   =  1.00D-10  THRCS   =  1.00D-10
 THRNRM  =  1.00D-08  THREQ   =  0.00D+00  THRDE   =  1.00D+00  THRREF  =  1.00D-05  SPARFAC =  1.00D+00  THRDLP  =  1.00D-07
 THRDIA  =  1.00D-10  THRDLS  =  1.00D-07  THRGPS  =  0.00D+00  THRKEX  =  0.00D+00  THRDIS  =  2.00D-01  THRVAR  =  1.00D-10
 THRLOC  =  1.00D-06  THRGAP  =  1.00D-06  THRLOCT = -1.00D+00  THRGAPT = -1.00D+00  THRORB  =  1.00D-06  THRMLTP =  0.00D+00
 THRCPQCI=  1.00D-10  KEXTA   =  0.00D+00  THRCOARS=  0.00D+00  SYMTOL  =  1.00D-06  GRADTOL =  1.00D-06  THROVL  =  1.00D-08
 THRORTH =  1.00D-08  GRID    =  1.00D-06  GRIDMAX =  1.00D-03  DTMAX   =  0.00D+00  THROCCDE=  1.00D-01  THROCCDE=  1.00D-01



 PUNCHFILE MOLPRO.PUN OPENED

 Variable memory set to    8000000 words,  buffer space   230000 words

 SETTING BASIS          =    AUG-CC-PVDZ
 SETTING GEOMTYPE       =    XYZ
 ZSYMEL=NOSYM
 ZCENTRE=MASS
 ZUNIT=ANG


Geometry recognized as XYZ



 Recomputing integrals since basis changed


 Using spherical harmonics

 Library entry H      S aug-cc-pVDZ          selected for orbital group  1
 Library entry H      P aug-cc-pVDZ          selected for orbital group  1

1PROGRAM * SEWARD (Integral evaluation for generally contracted gaussian basis sets)     Author: Roland Lindh, 1990

 Geometry written to block  1 of record 700

 Orientation using atomic masses  
 Molecule type: Linear
 Rotational constants:    2046.5220167   2046.5220167      0.0000000 GHz  (calculated with average atomic masses)

 Point group  C1  



 ATOMIC COORDINATES

 NR  ATOM    CHARGE       X              Y              Z

   1  H       1.00    0.000000000    0.000000000    0.661404146
   2  H       1.00    0.000000000    0.000000000   -0.661404146

 NUCLEAR CHARGE:                    2
 NUMBER OF PRIMITIVE AOS:          22
 NUMBER OF SYMMETRY AOS:           22
 NUMBER OF CONTRACTIONS:           18   (  18A   )
 NUMBER OF CORE ORBITALS:           0   (   0A   )
 NUMBER OF VALENCE ORBITALS:        2   (   2A   )


 NUCLEAR REPULSION ENERGY    0.75596744

 EXTRA SYMMETRY OF AOS IN SYMMETRY 1:   1 1 1 2 3 1 2 3 1 1   1 1 2 3 1 2 3 1

 Eigenvalues of metric

         1 0.253E-03 0.148E-01 0.174E-01 0.787E-01 0.957E-01 0.957E-01 0.152E+00 0.491E+00


 Contracted 2-electron integrals neglected if value below      1.0D-13
 AO integral compression algorithm  1   Integral accuracy      1.0D-13

     0.262 MB (compressed) written to integral file ( 67.2%)


 NUMBER OF SORTED TWO-ELECTRON INTEGRALS:      14706.     BUFFER LENGTH:  32768
 NUMBER OF SEGMENTS:   1  SEGMENT LENGTH:      14706      RECORD LENGTH: 524288

 Memory used in sort:       0.57 MW

 SORT1 READ       26487. AND WROTE        4350. INTEGRALS IN      1 RECORDS. CPU TIME:     0.00 SEC, REAL TIME:     0.00 SEC
 SORT2 READ        4350. AND WROTE       14706. INTEGRALS IN      1 RECORDS. CPU TIME:     0.02 SEC, REAL TIME:     0.00 SEC

 FILE SIZES:   FILE 1:     7.8 MBYTE,  FILE 4:     4.2 MBYTE,   TOTAL:     12.0 MBYTE

 OPERATOR DM      FOR CENTER  0  COORDINATES:    0.000000    0.000000    0.000000


 **********************************************************************************************************************************
 DATASETS  * FILE   NREC   LENGTH (MB)   RECORD NAMES
              1      19        7.58       500      610      700      900      950      970     1000      129      960     1100   
                                          VAR    BASINP    GEOM    SYMINP    ZMAT    AOBASIS   BASIS     P2S    ABASIS      S 
                                         1400     1410     1200     1210     1080     1600     1650     1300     1700   
                                           T        V       H0       H01     AOSYM     SMH    MOLCAS    ERIS     OPER   

 PROGRAMS   *        TOTAL       INT
 CPU TIMES  *         0.11      0.01
 REAL TIME  *         0.22 SEC
 DISK USED  *        12.29 MB      
 **********************************************************************************************************************************

1PROGRAM * RHF-SCF (CLOSED SHELL)       Authors: W. Meyer, H.-J. Werner


 NUMBER OF ELECTRONS:       1+    1-    SPACE SYMMETRY=1    SPIN SYMMETRY: Singlet 
 CONVERGENCE THRESHOLDS:    3.16E-06 (Density)    1.00E-08 (Energy)
 MAX. NUMBER OF ITERATIONS:       60
 INTERPOLATION TYPE:            DIIS
 INTERPOLATION STEPS:              2 (START)      1 (STEP)
 LEVEL SHIFTS:                  0.00 (CLOSED)  0.00 (OPEN) 



 Orbital guess generated from atomic densities. Full valence occupancy:    2

 Molecular orbital dump at record        2100.2

 ITERATION    DDIFF          GRAD             ENERGY        2-EL.EN.            DIPOLE MOMENTS         DIIS   ORB.
    1      0.000D+00      0.000D+00        -1.12544477      1.305155    0.00000    0.00000   -0.00000    0    start
    2      0.000D+00      0.657D-02        -1.12695673      1.337809    0.00000    0.00000   -0.00000    1    diag
    3      0.117D-01      0.112D-02        -1.12701010      1.344683    0.00000    0.00000   -0.00000    2    diag
    4      0.247D-02      0.841D-04        -1.12701042      1.344980    0.00000    0.00000   -0.00000    3    diag
    5      0.102D-03      0.442D-05        -1.12701042      1.344981    0.00000    0.00000    0.00000    4    diag
    6      0.102D-04      0.245D-06        -1.12701042      1.344982    0.00000    0.00000   -0.00000    5    diag
    7      0.487D-06      0.179D-07        -1.12701042      1.344982    0.00000    0.00000   -0.00000    0    orth

 Final occupancy:   1

 !RHF STATE 1.1 Energy                 -1.127010418362
 Nuclear energy                         0.75596744
 One-electron energy                   -2.55546890
 Two-electron energy                    0.67249104
 Virial quotient                       -0.99319515
 !RHF STATE 1.1 Dipole moment           0.00000000     0.00000000    -0.00000000
 Dipole moment /Debye                   0.00000000     0.00000000    -0.00000000

 Orbital energies:

         1.1          2.1          3.1
     -0.605243     0.061962     0.066344

 HOMO      1.1    -0.605243 =     -16.4695eV
 LUMO      2.1     0.061962 =       1.6861eV
 LUMO-HOMO         0.667206 =      18.1556eV


 **********************************************************************************************************************************
 DATASETS  * FILE   NREC   LENGTH (MB)   RECORD NAMES
              1      19        7.58       500      610      700      900      950      970     1000      129      960     1100   
                                          VAR    BASINP    GEOM    SYMINP    ZMAT    AOBASIS   BASIS     P2S    ABASIS      S 
                                         1400     1410     1200     1210     1080     1600     1650     1300     1700   
                                           T        V       H0       H01     AOSYM     SMH    MOLCAS    ERIS     OPER   

              2       4        0.35       700     1000      520     2100   
                                         GEOM     BASIS   MCVARS     RHF  

 PROGRAMS   *        TOTAL        HF       INT
 CPU TIMES  *         0.11      0.00      0.01
 REAL TIME  *         0.27 SEC
 DISK USED  *        12.29 MB      
 **********************************************************************************************************************************

1PROGRAM * MULTI (Direct Multiconfiguration SCF)       Authors: P.J. Knowles, H.-J. Werner (1984)     S.T. Elbert (1988)


 Number of active  orbitals:        4 (   4 )
 Number of external orbitals:      14 (  14 )

 State symmetry 1


 Number of electrons:     2    Spin symmetry=Singlet   Space symmetry=1
 Number of states:        2
 Number of CSFs:         10   (16 determinants, 16 intermediate states)
 CI vector dump at record                2501.2

 Iteration controls:
             1  2  3  4  5  6  7  8  9 10 11 12 13 14 15 16 17 18 19 20 21 22 23 24 25 26 27 28 29 30 31 32 33 34 35 36 37 38 39
 DIAGCI      T  T  T  T  T  T  T  T  T  T  T  T  T  T  T  T  T  T  T  T  T  T  T  T  T  T  T  T  T  T  T  T  T  T  T  T  T  T  T
 WERNER      T  T  T  T  T  T  T  T  T  T  T  T  T  T  T  T  T  T  T  T  T  T  T  T  T  T  T  T  T  T  T  T  T  T  T  T  T  T  T
 INTERNAL    F  T  T  T  T  T  T  T  T  T  T  T  T  T  T  T  T  T  T  T  T  T  T  T  T  T  T  T  T  T  T  T  T  T  T  T  T  T  T

 Molecular orbitals read from record     2100.2  Type=RHF/CANONICAL (state 1.1)

 EXTRA SYMMETRY OF MOS IN SYMMETRY 1:   1 1 1 1 3 2 1 3 2 1   1 1 3 2 1 3 2 1

 Wavefunction dump at record             2140.3

 Convergence thresholds  0.10E-03 (gradient)  0.10E-06 (energy)  0.10E-02 (step length)

 Weight factors for state symmetry  1:    0.50000   0.50000

 Number of orbital rotations:       56   (     0 Core/Active      0 Core/Virtual   0 Active/Active     56 Active/Virtual)
 Total number of variables:         88


 ITER. MIC  NCI  NEG     ENERGY(VAR)     ENERGY(PROJ)   ENERGY CHANGE     GRAD(0)  GRAD(ORB)   GRAD(CI)     STEP       TIME

   1  114    4    0      -0.89020819      -0.91526405   -0.02505585    0.08619179 0.00000005 0.00000000  0.12D+01      0.00
   2   60    4    0      -0.91470098      -0.91474636   -0.00004538    0.00347360 0.00000008 0.00000000  0.51D-01      0.00
   3   49    4    0      -0.91474637      -0.91474637   -0.00000001    0.00003464 0.00000010 0.00000000  0.23D-03      0.00

 ** WVFN ****  CONVERGENCE REACHED, FINAL GRADIENT:  0.32D-05



 Results for state 1.1
 =====================

 !MCSCF STATE 1.1 Energy               -1.149718464508
 Nuclear energy                         0.75596744
 Kinetic energy                         1.16111376
 One electron energy                   -2.53319652
 Two electron energy                    0.62751061
 Virial ratio                           1.99018589

 !MCSCF STATE 1.1 Dipole moment         0.00000000     0.00000000    -0.00000001
 Dipole moment /Debye                   0.00000000     0.00000000    -0.00000001

 Results for state 2.1
 =====================

 !MCSCF STATE 2.1 Energy               -0.679774279865
 Nuclear energy                         0.75596744
 Kinetic energy                         0.90912907
 One electron energy                   -1.70911676
 Two electron energy                    0.27337504
 Virial ratio                           1.74772032

 !MCSCF STATE 2.1 Dipole moment         0.00000000     0.00000000     0.00000251
 Dipole moment /Debye                   0.00000000     0.00000000     0.00000639

 State-averaged charge density matrix saved on record  2140.3 (density set 1)

 !MCSCF trans         <2.1|DMZ|1.1>    -0.923623158582 au =    -2.347462147388 Debye
 !MCSCF expec         <2.1|DMZ|2.1>     0.000002514471 au =     0.000006390730 Debye


 EXTRA SYMMETRY OF MOS IN SYMMETRY 1:   1 1 1 1 1 2 3 1 2 3   1 1 2 3 1 2 3 1

 Natural orbital dump (state averaged) at molpro section  2140.3    (Orbital set 2)


 CI vector
 =========

 2000      0.9893135   0.0000001
 ba00      0.0000001  -0.7018535
 ab00     -0.0000001   0.7018535
 0ba0      0.0000000   0.0856547
 0ab0     -0.0000000  -0.0856547
 0002     -0.0819256  -0.0000000
 b0a0     -0.0642374  -0.0000000
 a0b0      0.0642374   0.0000000
 0020     -0.0539498  -0.0000000

 TOTAL ENERGIES                        -1.14971846    -0.67977428



 **********************************************************************************************************************************
 DATASETS  * FILE   NREC   LENGTH (MB)   RECORD NAMES
              1      20        7.62       500      610      700      900      950      970     1000      129      960     1100   
                                          VAR    BASINP    GEOM    SYMINP    ZMAT    AOBASIS   BASIS     P2S    ABASIS      S 
                                         1400     1410     1200     1210     1080     1600     1650     1300     1700     1380   
                                           T        V       H0       H01     AOSYM     SMH    MOLCAS    ERIS     OPER     JKOP   

              2       5        0.36       700     1000      520     2100     2501   
                                         GEOM     BASIS   MCVARS     RHF    MCVECT    

              3       2        0.11      1000     2140   
                                         BASIS    MCSCF   

 PROGRAMS   *        TOTAL     MULTI        HF       INT
 CPU TIMES  *         0.11      0.00      0.00      0.01
 REAL TIME  *         0.38 SEC
 DISK USED  *        12.29 MB      
 **********************************************************************************************************************************

 Dump information in style MOLDEN to molpro.mld                                                                      

 Molecular orbitals read from record     2140.3  Type=MCSCF/NATURAL  
 Occupation numbers read from record     2140.3  Type=MCSCF/NATURAL  
 Orbital energies read from record       2140.3  Type=MCSCF/NATURAL  
 Redundancy group numbers read from rec  2140.3  Type=MCSCF/NATURAL  

 DUMP ORBITAL  1.1 AS ORBITAL    1  occ=    1.4755  eig=   -0.6313  GROUP= 103
 DUMP ORBITAL  2.1 AS ORBITAL    2  occ=    0.5019  eig=    0.0209  GROUP= 103
 DUMP ORBITAL  3.1 AS ORBITAL    3  occ=    0.0144  eig=    0.4733  GROUP= 103
 DUMP ORBITAL  4.1 AS ORBITAL    4  occ=    0.0082  eig=    0.6377  GROUP= 103

 Total charge:       2.000000

 **********************************************************************************************************************************

        MULTI           HF-SCF  
     -0.67977428     -1.12701042
 **********************************************************************************************************************************
 Variable memory released
