[Molden Format]
made by pyscf v[2.0.1]
[Atoms] (AU)
C   1   6     0.00000000000000     0.00000000000000    -2.28477993900000
O   2   8     0.00000000000000     0.00000000000000     1.71522006100000
[GTO]
1 0
 s    6 1.00
             3047.5249  0.0018347001629433
             457.36951    0.01403730124668
             103.94869   0.068842606114048
             29.210155    0.23218442062076
              9.286663    0.46794134155879
              3.163927    0.36231203217765
 s    3 1.00
             7.8682724   -0.11933240861517
             1.8812885   -0.16085421161283
             0.5442493     1.1434564825515
 s    1 1.00
             0.1687144                   1
 p    3 1.00
             7.8682724   0.068999095584993
             1.8812885    0.31642397975315
             0.5442493    0.74430825237435
 p    1 1.00
             0.1687144                   1

2 0
 s    6 1.00
             5484.6717   0.001831099805527
             825.23495   0.013950098518422
             188.04696    0.06844509273075
               52.9645    0.23271427528445
              16.89757    0.47019295006289
             5.7996353    0.35852086192309
 s    3 1.00
             15.539616   -0.11077750382508
             3.5999336   -0.14802630511126
             1.0137618     1.1307670390447
 s    1 1.00
             0.2700058                   1
 p    3 1.00
             15.539616   0.070874299543311
             3.5999336    0.33975279781076
             1.0137618    0.72715859531445
 p    1 1.00
             0.2700058                   1
[MO]
 Sym= 1.1
 Ene=    -20.61638786
 Spin= Alpha
 Occup=    2.00000
   1    -5.4728932244788e-05
   2    -0.00047816286040839
   3    0.0010862449768856
   4                     0
   5                     0
   6    -6.4356246400078e-05
   7                     0
   8                     0
   9    0.00096907965790937
  10      0.99596760617155
  11     0.020143843150901
  12    -0.0050436590397774
  13                     0
  14                     0
  15    -0.0006110468061591
  16                     0
  17                     0
  18    0.00084933887615234
 Sym= 2.1
 Ene=    -11.46554888
 Spin= Alpha
 Occup=    2.00000
   1      0.99673210599224
   2     0.019210153834459
   3    -0.0057945552484736
   4                     0
   5                     0
   6    0.00078890739766633
   7                     0
   8                     0
   9    -0.0010839414283214
  10    -3.6856842796669e-05
  11    -0.00044290768481568
  12    0.0012667371228515
  13                     0
  14                     0
  15    -2.9746684726814e-05
  16                     0
  17                     0
  18    -0.00084349370801881
 Sym= 3.1
 Ene=      -1.1814171
 Spin= Alpha
 Occup=    2.00000
   1    -0.022483725845747
   2     0.051307627795437
   3     0.039202650050225
   4                     0
   5                     0
   6     0.039986273918803
   7                     0
   8                     0
   9     0.010177077981406
  10     -0.22906443170853
  11      0.53155972715693
  12      0.54004619901921
  13                     0
  14                     0
  15    -0.0010589432087231
  16                     0
  17                     0
  18     -0.01200077997085
 Sym= 4.1
 Ene=    -0.783875504
 Spin= Alpha
 Occup=    2.00000
   1     -0.22523031630686
   2       0.5040513391344
   3      0.55396425544805
   4                     0
   5                     0
   6     -0.00564310486571
   7                     0
   8                     0
   9    -0.009804753761012
  10     0.034912517551243
  11    -0.089746100807227
  12    -0.098455297576138
  13                     0
  14                     0
  15    -0.056561263535302
  16                     0
  17                     0
  18    -0.042732118582099
 Sym= 5.1
 Ene=   -0.4844407364
 Spin= Alpha
 Occup=    2.00000
   1                     0
   2                     0
   3                     0
   4     0.038228484776274
   5                     0
   6                     0
   7     0.056263167952522
   8                     0
   9                     0
  10                     0
  11                     0
  12                     0
  13      0.65951343856813
  14                     0
  15                     0
  16      0.47790759644911
  17                     0
  18                     0
 Sym= 6.1
 Ene=   0.4844407364
 Spin= Alpha
 Occup=    2.00000
   1                     0
   2                     0
   3                     0
   4                     0
   5     0.038228484776273
   6                     0
   7                     0
   8      0.05626316795252
   9                     0
  10                     0
  11                     0
  12                     0
  13                     0
  14      0.65951343856813
  15                     0
  16                     0
  17       0.4779075964491
  18                     0
 Sym= 7.1
 Ene=    -0.417632109
 Spin= Alpha
 Occup=    2.00000
   1     0.011341188641841
   2    -0.029281991907123
   3    -0.036647795695192
   4                     0
   5                     0
   6      0.59071555931687
   7                     0
   8                     0
   9      0.42630332375919
  10     0.030539784592458
  11    -0.080844161771334
  12     -0.12945433765313
  13                     0
  14                     0
  15     -0.20005253024156
  16                     0
  17                     0
  18     -0.15533182419443
 Sym= 8.1
 Ene=  0.005687039128
 Spin= Alpha
 Occup=    0.00000
   1                     0
   2                     0
   3                     0
   4       0.5082994898978
   5                     0
   6                     0
   7      0.61902335523559
   8                     0
   9                     0
  10                     0
  11                     0
  12                     0
  13      -0.1012933103873
  14                     0
  15                     0
  16    -0.083298518923592
  17                     0
  18                     0
 Sym= 9.1
 Ene=  0.005687039128
 Spin= Alpha
 Occup=    0.00000
   1                     0
   2                     0
   3                     0
   4                     0
   5      0.50829948989781
   6                     0
   7                     0
   8      0.61902335523558
   9                     0
  10                     0
  11                     0
  12                     0
  13                     0
  14      -0.1012933103873
  15                     0
  16                     0
  17     -0.08329851892359
  18                     0
 Sym= 10.1
 Ene=    0.1102533674
 Spin= Alpha
 Occup=    0.00000
   1    -0.046999401695132
   2      0.14219828982601
   3      0.13331347312786
   4                     0
   5                     0
   6      0.31436882174382
   7                     0
   8                     0
   9      0.31064493875197
  10     0.020716880830164
  11    -0.050538725050577
  12     -0.10389577492857
  13                     0
  14                     0
  15       0.5390872896748
  16                     0
  17                     0
  18       0.6195687308042
 Sym= 11.1
 Ene=    0.7067010995
 Spin= Alpha
 Occup=    0.00000
   1    -0.051756047932525
   2       1.0453824865556
   3     -0.97028160424521
   4                     0
   5                     0
   6     -0.78458117808974
   7                     0
   8                     0
   9      0.93474958983586
  10    0.0055775030868934
  11     0.023651193748863
  12     -0.16840454399279
  13                     0
  14                     0
  15    -0.067643470384858
  16                     0
  17                     0
  18      0.14305871273543
 Sym= 12.1
 Ene=    0.7278436107
 Spin= Alpha
 Occup=    0.00000
   1                     0
   2                     0
   3                     0
   4       1.1011466311988
   5                     0
   6                     0
   7       -1.045288336342
   8                     0
   9                     0
  10                     0
  11                     0
  12                     0
  13      0.11039145745027
  14                     0
  15                     0
  16    -0.0071166041275168
  17                     0
  18                     0
 Sym= 13.1
 Ene=    0.7278436107
 Spin= Alpha
 Occup=    0.00000
   1                     0
   2                     0
   3                     0
   4                     0
   5       1.1011466311988
   6                     0
   7                     0
   8       -1.045288336342
   9                     0
  10                     0
  11                     0
  12                     0
  13                     0
  14      0.11039145745027
  15                     0
  16                     0
  17    -0.0071166041275161
  18                     0
 Sym= 14.1
 Ene=    0.8176618846
 Spin= Alpha
 Occup=    0.00000
   1     0.036867836525111
   2      -1.3000025440904
   3       1.4165603986454
   4                     0
   5                     0
   6     -0.67403725099599
   7                     0
   8                     0
   9      0.96891799451797
  10       0.0525592438262
  11     -0.26912490242545
  12     -0.14994403662084
  13                     0
  14                     0
  15    0.0093309273652864
  16                     0
  17                     0
  18      0.41113505089462
 Sym= 15.1
 Ene=     1.201779855
 Spin= Alpha
 Occup=    0.00000
   1                     0
   2                     0
   3                     0
   4      0.13396564855768
   5                     0
   6                     0
   7     -0.25222545379472
   8                     0
   9                     0
  10                     0
  11                     0
  12                     0
  13     -0.94085291330005
  14                     0
  15                     0
  16       1.0757093989845
  17                     0
  18                     0
 Sym= 16.1
 Ene=     1.201779855
 Spin= Alpha
 Occup=    0.00000
   1                     0
   2                     0
   3                     0
   4                     0
   5      0.13396564855768
   6                     0
   7                     0
   8     -0.25222545379472
   9                     0
  10                     0
  11                     0
  12                     0
  13                     0
  14     -0.94085291330005
  15                     0
  16                     0
  17       1.0757093989845
  18                     0
 Sym= 17.1
 Ene=     1.269116222
 Spin= Alpha
 Occup=    0.00000
   1      0.01260125466956
   2     -0.15569975515422
   3     0.066083588486505
   4                     0
   5                     0
   6     -0.18725156401611
   7                     0
   8                     0
   9      0.12153355311154
  10    -0.057914035364605
  11      0.80611080889211
  12     -0.82773342511633
  13                     0
  14                     0
  15      0.83600566470526
  16                     0
  17                     0
  18     -0.80997518619089
 Sym= 18.1
 Ene=      1.54019548
 Spin= Alpha
 Occup=    0.00000
   1     0.029016162182765
   2      0.46063770659675
   3     -0.83292488755097
   4                     0
   5                     0
   6     0.078255424470641
   7                     0
   8                     0
   9     -0.64832850131685
  10     0.071723631880782
  11      -1.3017692339744
  12       1.5757105159975
  13                     0
  14                     0
  15      0.59866764939211
  16                     0
  17                     0
  18     -0.94722245603838
