[Molden Format]
made by pyscf v[2.0.1]
[Atoms] (AU)
C   1   6     0.00000000000000     0.00000000000000    -1.21755922900000
O   2   8     0.00000000000000     0.00000000000000     0.91404077100000
[GTO]
1 0
 s    6 1.00
             3047.5249  0.0018347001629433
             457.36951    0.01403730124668
             103.94869   0.068842606114048
             29.210155    0.23218442062076
              9.286663    0.46794134155879
              3.163927    0.36231203217765
 s    3 1.00
             7.8682724   -0.11933240861517
             1.8812885   -0.16085421161283
             0.5442493     1.1434564825515
 s    1 1.00
             0.1687144                   1
 p    3 1.00
             7.8682724   0.068999095584993
             1.8812885    0.31642397975315
             0.5442493    0.74430825237435
 p    1 1.00
             0.1687144                   1

2 0
 s    6 1.00
             5484.6717   0.001831099805527
             825.23495   0.013950098518422
             188.04696    0.06844509273075
               52.9645    0.23271427528445
              16.89757    0.47019295006289
             5.7996353    0.35852086192309
 s    3 1.00
             15.539616   -0.11077750382508
             3.5999336   -0.14802630511126
             1.0137618     1.1307670390447
 s    1 1.00
             0.2700058                   1
 p    3 1.00
             15.539616   0.070874299543311
             3.5999336    0.33975279781076
             1.0137618    0.72715859531445
 p    1 1.00
             0.2700058                   1
[MO]
 Sym= 1.1
 Ene=    -20.68620895
 Spin= Alpha
 Occup=    2.00000
   1    0.00019091113040842
   2    0.00013660809250868
   3    0.0061985987385846
   4                     0
   5                     0
   6    -0.00014520939053972
   7                     0
   8                     0
   9    0.0039211040245989
  10      0.99582705272786
  11     0.022874167325296
  12    -0.012239391227688
  13                     0
  14                     0
  15    -0.0025036653030224
  16                     0
  17                     0
  18    0.0038872313525219
 Sym= 2.1
 Ene=    -11.39628696
 Spin= Alpha
 Occup=    2.00000
   1      0.99633742727858
   2     0.022009786842061
   3    -0.0038889432854611
   4                     0
   5                     0
   6    0.0046823640910048
   7                     0
   8                     0
   9    -0.00078185364539735
  10    -0.00070302253652075
  11    0.00063460859561495
  12    -0.0018688013260548
  13                     0
  14                     0
  15    -0.00067532663245891
  16                     0
  17                     0
  18    0.0028104925793899
 Sym= 3.1
 Ene=    -1.561551829
 Spin= Alpha
 Occup=    2.00000
   1     -0.11392829616446
   2      0.23376550332945
   3    -0.0056040816153875
   4                     0
   5                     0
   6       0.2190962642059
   7                     0
   8                     0
   9    -0.050524397026919
  10      -0.2001490318479
  11       0.4493193209547
  12      0.39982753725322
  13                     0
  14                     0
  15     -0.19423679201027
  16                     0
  17                     0
  18    -0.053691431224447
 Sym= 4.1
 Ene=    -0.797055892
 Spin= Alpha
 Occup=    2.00000
   1      0.12564150494058
   2     -0.31827518233278
   3     -0.18132681631995
   4                     0
   5                     0
   6     -0.13666033545637
   7                     0
   8                     0
   9     0.031780916170044
  10     -0.11428393814453
  11      0.26419773854777
  12      0.42802956693831
  13                     0
  14                     0
  15      0.48931929612426
  16                     0
  17                     0
  18      0.21706629056034
 Sym= 5.1
 Ene=   -0.6426011646
 Spin= Alpha
 Occup=    2.00000
   1                     0
   2                     0
   3                     0
   4      0.29772702418931
   5                     0
   6                     0
   7      0.11558247379846
   8                     0
   9                     0
  10                     0
  11                     0
  12                     0
  13       0.5595763531524
  14                     0
  15                     0
  16      0.38123810513662
  17                     0
  18                     0
 Sym= 6.1
 Ene=   -0.6426011646
 Spin= Alpha
 Occup=    2.00000
   1                     0
   2                     0
   3                     0
   4                     0
   5      0.29772702418931
   6                     0
   7                     0
   8      0.11558247379846
   9                     0
  10                     0
  11                     0
  12                     0
  13                     0
  14       0.5595763531524
  15                     0
  16                     0
  17      0.38123810513662
  18                     0
 Sym= 7.1
 Ene=   -0.5507282404
 Spin= Alpha
 Occup=    2.00000
   1     -0.14188351164717
   2      0.25694572155029
   3      0.65537206674121
   4                     0
   5                     0
   6     -0.44471296300444
   7                     0
   8                     0
   9     -0.11155848656746
  10       0.0126793290024
  11    -0.040651156958845
  12     -0.05870737537512
  13                     0
  14                     0
  15      0.27741623562583
  16                     0
  17                     0
  18      0.16247769594781
 Sym= 8.1
 Ene=    0.1432715505
 Spin= Alpha
 Occup=    0.00000
   1                     0
   2                     0
   3                     0
   4      0.46146064217345
   5                     0
   6                     0
   7      0.74041292775449
   8                     0
   9                     0
  10                     0
  11                     0
  12                     0
  13     -0.36159421625645
  14                     0
  15                     0
  16     -0.49789893128959
  17                     0
  18                     0
 Sym= 9.1
 Ene=    0.1432715505
 Spin= Alpha
 Occup=    0.00000
   1                     0
   2                     0
   3                     0
   4                     0
   5      0.46146064217345
   6                     0
   7                     0
   8      0.74041292775449
   9                     0
  10                     0
  11                     0
  12                     0
  13                     0
  14     -0.36159421625645
  15                     0
  16                     0
  17     -0.49789893128959
  18                     0
 Sym= 10.1
 Ene=    0.4047310599
 Spin= Alpha
 Occup=    0.00000
   1     0.036046033592895
   2      0.14409499589086
   3      -2.0478663187417
   4                     0
   5                     0
   6    -0.086319561825175
   7                     0
   8                     0
   9      -1.9388501777852
  10    -0.093097603594334
  11      0.13242394121798
  12       2.1656490088709
  13                     0
  14                     0
  15    -0.095621169168232
  16                     0
  17                     0
  18      -0.7940962109124
 Sym= 11.1
 Ene=    0.7280109093
 Spin= Alpha
 Occup=    0.00000
   1                     0
   2                     0
   3                     0
   4      -1.0824702900836
   5                     0
   6                     0
   7       1.0990545275656
   8                     0
   9                     0
  10                     0
  11                     0
  12                     0
  13    -0.039139945802428
  14                     0
  15                     0
  16    -0.041197171074563
  17                     0
  18                     0
 Sym= 12.1
 Ene=    0.7280109093
 Spin= Alpha
 Occup=    0.00000
   1                     0
   2                     0
   3                     0
   4                     0
   5      -1.0824702900836
   6                     0
   7                     0
   8       1.0990545275656
   9                     0
  10                     0
  11                     0
  12                     0
  13                     0
  14    -0.039139945802423
  15                     0
  16                     0
  17    -0.041197171074567
  18                     0
 Sym= 13.1
 Ene=    0.7719157435
 Spin= Alpha
 Occup=    0.00000
   1     0.066458072943126
   2      -1.3305459000389
   3       1.6192271199493
   4                     0
   5                     0
   6      0.60630817088532
   7                     0
   8                     0
   9     -0.40185792311898
  10     0.015160045622789
  11    -0.065404372626931
  12     -0.28246137618413
  13                     0
  14                     0
  15     -0.10834832086036
  16                     0
  17                     0
  18      0.28553624660086
 Sym= 14.1
 Ene=     1.011328774
 Spin= Alpha
 Occup=    0.00000
   1    -0.0051100592614657
   2       1.2207291057411
   3      0.12706249191823
   4                     0
   5                     0
   6      0.91271553280468
   7                     0
   8                     0
   9     -0.16272802697167
  10      0.08226977162316
  11     -0.26707409207636
  12     -0.58884983573874
  13                     0
  14                     0
  15     -0.10625617943041
  16                     0
  17                     0
  18        1.463149231394
 Sym= 15.1
 Ene=     1.206008757
 Spin= Alpha
 Occup=    0.00000
   1                     0
   2                     0
   3                     0
   4      0.09819227145544
   5                     0
   6                     0
   7     -0.54420636818256
   8                     0
   9                     0
  10                     0
  11                     0
  12                     0
  13      -0.9654743417569
  14                     0
  15                     0
  16       1.2756569492336
  17                     0
  18                     0
 Sym= 16.1
 Ene=     1.206008757
 Spin= Alpha
 Occup=    0.00000
   1                     0
   2                     0
   3                     0
   4                     0
   5     0.098192271455435
   6                     0
   7                     0
   8     -0.54420636818255
   9                     0
  10                     0
  11                     0
  12                     0
  13                     0
  14      -0.9654743417569
  15                     0
  16                     0
  17       1.2756569492336
  18                     0
 Sym= 17.1
 Ene=     1.212493869
 Spin= Alpha
 Occup=    0.00000
   1    -0.078585420685664
   2      0.26831872724117
   3     -0.22600693810762
   4                     0
   5                     0
   6      0.71156997423537
   7                     0
   8                     0
   9     -0.28298768362673
  10     0.005780375072321
  11      0.10895855447697
  12     -0.24117395634449
  13                     0
  14                     0
  15       1.0121841802729
  16                     0
  17                     0
  18     -0.65067007891219
 Sym= 18.1
 Ene=     1.842926885
 Spin= Alpha
 Occup=    0.00000
   1     -0.06340706303722
   2     -0.27660913847908
   3      -2.4282509623028
   4                     0
   5                     0
   6      -0.2319579150857
   7                     0
   8                     0
   9      -1.5226180053204
  10     0.037293706224297
  11      -1.8975308060614
  12       4.3043704973936
  13                     0
  14                     0
  15      0.22713099194022
  16                     0
  17                     0
  18      -1.5753699749528
