[Molden Format]
[Molpro variables]
_NUMVAR=  1023.000000000000    
_AVOGAD= 0.6022140760000000E+24
_BOLTZ= 0.1380649000000000E-22
_CLIGHTSI=  299792458.0000000    
_JOULE= 0.4359744722207100E-17
_JPCAL=  4.184000000000000    
_PLANCK= 0.6626070150000000E-33
_BOHR= 0.5291772109030000E-10
_ECHARG= 0.1602176634000000E-18
_ENULL= 0.8854187812800001E-11
_MU= 0.1660539066600000E-26
_EMASS= 0.9109383701500001E-30
_AMU2AU=  1822.888486217313    
_CLIGHT=  29979245800.00000    
_EV= 0.3674932217565494E-01
_KJOULE= 0.3808798847133432E-03
_KJOULE/MOL= 0.3808798847133432E-03
_CM= 0.4556335252912009E-05
_CM-1= 0.4556335252912009E-05
_DEB2SI= 0.3335640951981520E-29
_KCAL= 0.1593601437640628E-02
_KCAL/MOL= 0.1593601437640628E-02
_KELVIN= 0.3166811563455608E-05
_HERTZ= 0.1519829846057038E-15
_HZ= 0.1519829846057038E-15
_TOA= 0.5291772109030000    
_TOANG= 0.5291772109030000    
_TORAD= 0.1745329251994330E-01
_TOCM=  219474.6313631965    
_TODEBYE=  2.541746473194078    
_TOE= 0.4803204712570263E-09
_TOEV=  27.21138624598803    
_TOHERTZ=  6579683920501656.    
_TOHZ=  6579683920501656.    
_TOK=  315775.0248040668    
_TOKCAL=  627.5094740630558    
_TOKELVIN=  315775.0248040668    
_TOKJ=  2625.499639479825    
_TOKJOULE=  2625.499639479825    
_TOKG= 0.1660539066600000E-26
_ANG=  1.889726124625770    
_ANGSTROM=  1.889726124625770    
_RPAREF=  0.000000000000000    
_RPADISS=  0.000000000000000    
_IGNORE_UNDEF=  2.000000000000000    
_STRICTCHECK=  0.000000000000000    
!SEWARD=  0.000000000000000    
!MULTI=  0.000000000000000    
!DFMULTI=  0.000000000000000    
_SEW_ONEEL=  0.000000000000000    
_CPPDONE=FALSE
_DKROLL_DONE=  0.000000000000000    
_FNUC_DONE=  0.000000000000000    
_FOCKDONE=TRUE
_GRADONE=FALSE
_HESSDONE=FALSE
_INTDONE=TRUE
_SCFDONE=TRUE
_MODUL_BLOCK=FALSE
_MODUL_CUDA=FALSE
_MODUL_SLATER=FALSE
_MODUL_MRCC=FALSE
_MODUL_NBO6=FALSE
_MODUL_NECI=FALSE
_MODUL_AIMS=TRUE
_MODUL_GECCO=FALSE
_ISWINDOWS=FALSE
_MRCC_EXEC=
_FITC_AO_SAVED=FALSE
_FITC_MO_SAVED=FALSE
_SHARED_FS=TRUE
_LSTYP=SEWARD
_INTYP=INTS
_GEOMTYP=ZMAT
_GRADTYP=ALASKA
_DIRECT=FALSE
_DKHO= -1.000000000000000    
_FNUC=  0.000000000000000    
_SYNCM=  0.000000000000000    
_BASIS=USERDEF
_ZCENTRE=MASS
_ZUNIT=ANG
_ZORIENT=  0.000000000000000    
!ZORIENT=  0.000000000000000    
_NELEC=  12.00000000000000    
!SPIN=  0.000000000000000    
_QSDSTEP=  0.000000000000000    
_QSDIRC=  0.000000000000000    
_PROGRAM=MULTI
_CPUSTEP=  32.97000000000000    
_SYSSTEP=  2.030000000000000    
_WALLSTEP=  34.38000000000000    
!DFSCF=  0.000000000000000    
!SCSGRD=  0.000000000000000    
_CARTESIAN=TRUE
_CPUTOT=  45.73000000000000    
_DFTEXFAC=  1.000000000000000    
_DMX=-0.9397580772955662E-15
_DMY= 0.1803090682389432E-15
_DMZ= -2.673812564234519    
_DMX_SCF=-0.1548049543030274E-13
_DMY_SCF=-0.3598970075873515E-14
_DMZ_SCF= -2.567533562907450    
_HOMO=  6.100000000000000    
_EHOMO=-0.4743052631584618    
_LUMO=  7.100000000000000    
_ELUMO=-0.1069649686368175E-01
_ENERGY= -107.1179902444822    
_ENERGY_METHOD=MULTI
_ENERGY_BASIS=USERDEF
_GEOMETRY_METHOD=
_GEOMETRY_BASIS=
_ENERGY_AVRG= -106.9531231021625    
_ENUC=  9.042901705304430    
_GRADEXFAC=  9999.000000000000    
_GRADMETHOD=  4.000000000000000    
_NMRMETHOD=  0.000000000000000    
_NMRMAGNET=  0.000000000000000    
!GRID_FREEZE= -1.000000000000000    
!NEESE_INDEX=  0.000000000000000    
_ITERATIONS=  6.000000000000000    
_LASTNELEC=  6.000000000000000    
_LASTSPIN=  0.000000000000000    
_LASTSYM=  1.000000000000000    
_MPP_PROG=  0.000000000000000    
_MSNSTATES=  0.000000000000000    
_RS2PHASE=  0.000000000000000    
_IPROC_MPP=  0.000000000000000    
_IPROC_MPPX=  0.000000000000000    
_NPROC_MPP=  1.000000000000000    
_NPROC_MPPX=  1.000000000000000    
_NPROC_SMP=  1.000000000000000    
_NUMSTEP=  0.000000000000000    
_ORBITAL=  2140.200000000000    
_PI=  3.141592653589793    
!MCACT=  11.00000000000000    
!MCCLOSED=  3.000000000000000    
!MCFREEZE=  0.000000000000000    
!MCMS2=  0.000000000000000    
!MCNEL=  6.000000000000000    
!MCNSTSYM=  1.000000000000000    
!MCSTATE=  4.000000000000000    
!MCSYM=  1.000000000000000    
!MCWEIGHT= 0.2500000000000000    
_SEIG_MIN= 0.1311916556222502E-07
_SEWPROP=TRUE
_STATUS=  1.000000000000000    
_SYSTOT=  3.650000000000000    
_VERSION=  2022002.000000000    
_WALLTOT=  48.89000000000000    
_DATE=12-Jul-23
_LASTORB=MCSCF
_OUTPUT=/home/andres/PycharmProjects/PyXSCAT/src/lif-eq-z-mine.out
_PGROUP=C1
_TIME=20:34:31
_LIBMOL=/usr/local/molpro/molpro_2022.2/lib/
_VIGRDC=  0.000000000000000    
!VIBCNT=  0.000000000000000    
!RGHFCNT=  0.000000000000000    
!SURFREC=  0.000000000000000    
!XSURFREC=  0.000000000000000    
!XPOLYREC=  0.000000000000000    
!ROTREC=  0.000000000000000    
!POLYREC=  0.000000000000000    
!DIPREC=  0.000000000000000    
!DIP4DREC=  0.000000000000000    
!DIPROT=  0.000000000000000    
!DIP4DROT=  0.000000000000000    
!PTREC=  0.000000000000000    
!PT4DREC=  0.000000000000000    
!VSCFREC=  0.000000000000000    
!VCIREC=  0.000000000000000    
!PVCIREC=  0.000000000000000    
!VMP2REC=  0.000000000000000    
!VMCSCFREC=  0.000000000000000    
!VMRCIREC=  0.000000000000000    
!VIBSTATEREC=  0.000000000000000    
!VIBSTATECNT=  0.000000000000000    
!VIBINFO=  0.000000000000000    
!GAREC=  0.000000000000000    
!SCFORB=  21002.00000000000    
!MCORB=  21402.00000000000    
!DEFCORE=  2.000000000000000    
!SCORE=  0.000000000000000    
!NEWMOL= -1.000000000000000    
!NEWSYM= -1.000000000000000    
_SLFILES=slscratch
_NGSSTO=  9.000000000000000    
_SIN=SIN
_COS=COS
_TAN=TAN
_ACOS=ACOS
_ASIN=ASIN
_ATAN=ATAN
_COSH=COSH
_SINH=SINH
_TANH=TANH
_ABS=ABS
_MOD=MOD
_ERF=ERF
_REFC=REFC
_ERFC=ERFC
_HYPOT=HYPOT
_J0=J0
_J1=J1
_JN=JN
_GAMMA=GAMMA
_LGAMMA=LGAMMA
_Y0=Y0
_Y1=Y1
_YN=YN
_EXP=EXP
_LOG=LOG
_LOG10=LOG10
_SQRT=SQRT
_INT=INT
_NINT=NINT
_MAX=MAX
_MIN=MIN
_COSMO=  0.000000000000000    
_COSMOIT=  0.000000000000000    
_COSMOES=  0.000000000000000    
_COSMOEDS=  0.000000000000000    
_COSMOEC=  0.000000000000000    
_COSMOEDCORR=  0.000000000000000    
_FEPSI=  1.000000000000000    
_SL_IsMM=  0.000000000000000    
_SL_NSYM=  1.000000000000000    
_SL_System_BitSw=  0.000000000000000    
_SL_Unique_atoms=  0.000000000000000    
_SL_GRAD=  0.000000000000000    
_SL_MAXUPD_Hess=  5.000000000000000    
_SL_N_PRINT_COD=  5.000000000000000    
_SL_PRINT_CODES=  0.000000000000000    
_SL_BasType=  0.000000000000000    
_SL_Energy_Pred=  0.000000000000000    
_SL_New_Coords=  0.000000000000000    
_SL_Total_Nuclea=  0.000000000000000    
_SL_Highest_Mltp=  0.000000000000000    
_SL_Ref_Geom=  0.000000000000000    
_SL_Symmetry_ope=  1.000000000000000    
_SL_agrad=  0.000000000000000    
_SL_GrdMax=  0.000000000000000    
_SL_GrdNorm=  0.000000000000000    
_SL_GrdRMS=  0.000000000000000    
_SL_Hss_Q=  0.000000000000000    
_SL_Hss_X=  0.000000000000000    
_SL_BMxOld=  0.000000000000000    
_SL_KtB=  0.000000000000000    
_SL_TROld=  0.000000000000000    
_SL_No_of_Intern=  0.000000000000000    
_SL_Hess=  0.000000000000000    
_SL_K=  0.000000000000000    
!LATTICE= -1.000000000000000    
!NEWLATTICE=  0.000000000000000    
!LATGRAD_VAR=FALSE
!SEW_LATTICE=  1.000000000000000    
!AIC_ONEEL=  0.000000000000000    
!LOCAL=  0.000000000000000    
!SAVEDOM= -1.000000000000000    
!RESTDOM= -1.000000000000000    
!SAVEDOM_HF= -1.000000000000000    
!RESTDOM_HF= -1.000000000000000    
!HESSREC=  0.000000000000000    
!FREQREC=  0.000000000000000    
!NMODREC=  0.000000000000000    
!GTASKS=  0.000000000000000    
!HTASKS=  0.000000000000000    
!SAVEDOM_EOM= -1.000000000000000    
!RESTDOM_EOM= -1.000000000000000    
!GRADSTATE= -1.000000000000000    
!DEBUG=  0.000000000000000    
!CFIT_CPHF=  0.000000000000000    
!RDOMAUX_CPHF=  0.000000000000000    
!THRAO_CPHF= 0.1000000000000000E-11
!THRMO_CPHF= 0.1000000000000000E-11
!THROV_CPHF= 0.1000000000000000E-11
!THRSW_CPHF= 0.1000000000000000E-11
!THRPROD_CPHF= 0.1000000000000000E-11
!THRAOPR_CPHF= 0.1000000000000000E-11
!CFIT_SCFGRD=  0.000000000000000    
!RDOMAUX_SCFGRD=  0.000000000000000    
!THRAO_SCFGRD= 0.1000000000000000E-11
!THRMO_SCFGRD= 0.1000000000000000E-11
!THROV_SCFGRD= 0.1000000000000000E-11
!THRSW_SCFGRD= 0.1000000000000000E-11
!THRPROD_SCFGRD= 0.1000000000000000E-11
!THRAOPR_SCFGRD= 0.1000000000000000E-11
!LOCFIT_SCF=  0.000000000000000    
!LOCFIT_MP2=  0.000000000000000    
_RIDOM=  0.000000000000000    
!CC2_METHOD=  0.000000000000000    
_BASIS2006=FALSE
_SVDDEL= -1.000000000000000    
_SVDDELA= -1.000000000000000    
_SVDDELP= -1.000000000000000    
_SVDDELF= -1.000000000000000    
_SVDDELS= -1.000000000000000    
_SVDDEL_ABS= -1.000000000000000    
_SVDDELA_ABS= -1.000000000000000    
_SVDDELP_ABS= -1.000000000000000    
_SVDDELF_ABS= -1.000000000000000    
_SVDDELS_ABS= -1.000000000000000    
_MAXBASIS=  0.000000000000000    
!OPT_CONICAL=  0.000000000000000    
!CLEARSP_JGRID=  0.000000000000000    
_GRDHYBR=  0.000000000000000    
_STATEGRAD=  1.000000000000000    
_4EXT_NDISKS=  1.000000000000000    
!EMBEDFLAG=  1.000000000000000    
!EMBED=FALSE
!EMBED_F12=FALSE
!EMBEDNUC=  0.000000000000000    
_EMBEDENERGY=  0.000000000000000    
!EMBED_DFC=FALSE
!NUM_VOIDS=  0.000000000000000    
_IBODY=  0.000000000000000    
_EMBE_CORR=  0.000000000000000    
!EMBED_PROJ=FALSE
!EMB_PROJ_ZMU=  1000000.000000000    
!CORRECTION_HF=  0.000000000000000    
!EMBED_AORB=  0.000000000000000    
!EMBED_NACORR=  0.000000000000000    
!EMBED_MP2=FALSE
!EMBED_TRUNC_PERTURBATION=FALSE
!EMBED_FROZEN=  0.000000000000000    
!EMBED_ACTIVE=  0.000000000000000    
_CHANGE_BASIS=FALSE
_RESTORE_BASIS=FALSE
_FIX_EMBED_GUESS=FALSE
_EMBED_SCF=FALSE
_HUZINAGA_T=FALSE
_HUZINAGA_F=FALSE
_HUZINAGA=FALSE
_HUZINAGA_CORRECT=FALSE
!FASTLATGRAD=  1.000000000000000    
!FASTVLAMBDA= -1.000000000000000    
!IFORCE= -1.000000000000000    
!USESYM= -1.000000000000000    
_SINDEX=  0.000000000000000    
_AVDOM_OSV=  0.000000000000000    
_AVDOM_PNO=  0.000000000000000    
_AVDOM_PAO=  0.000000000000000    
_AVDOM_LMO=  0.000000000000000    
_CC2OSV_FLAG=  0.000000000000000    
_EOMCCSD_CONV=FALSE
_TMADC2_FLAG=FALSE
_PROPADC2_FLAG=FALSE
_LEN_VirQ=  0.000000000000000    
_GRDCC2LR_FLAG=FALSE
_GRDADC2_FLAG=FALSE
_DMX_CC= 0.1663006006641265E-18
_DMY_CC= 0.1663006006630072E-18
_DMZ_CC= -2.886595303358076    
_DMX_NUC=  0.000000000000000    
_DMY_NUC=  0.000000000000000    
_DMZ_NUC=  8.957301830723999    
_RO_VGLOBAL=  0.000000000000000    
_OPT=FALSE
_FREQ=FALSE
_HESS=FALSE
_CMRCC_callName=EMPTY
_CMRCC_callCount=  0.000000000000000    
_GECCO_CIROOT=  1.000000000000000    
_SYM_CATION=  1.000000000000000    
_MON_A=FALSE
_MON_B=FALSE
GEOMTYP=XYZ
GX1=  0.000000000000000    
GY1=  0.000000000000000    
GZ1=-0.7900000000000000    
GX2=  0.000000000000000    
GY2=  0.000000000000000    
GZ2= 0.7900000000000000    
_TRDMX=-0.3459645786714994E-02
_TRDMY=-0.2962290586001995    
_TRDMZ=-0.2115496711823629E-14
[Atoms] Angs
LI    1    3         0.0000000000        0.0000000000       -0.7900000000
F     2    9         0.0000000000        0.0000000000        0.7900000000
[GTO]
   1 0
 s   12  1.00
  0.6601000000D+04  0.1169999349D-03
  0.9897000000D+03  0.9109994932D-03
  0.2257000000D+03  0.4727997370D-02
  0.6429000000D+02  0.1919698932D-01
  0.2118000000D+02  0.6304696492D-01
  0.7724000000D+01  0.1632079092D+00
  0.3003000000D+01  0.3148268248D+00
  0.1212000000D+01  0.3939357808D+00
  0.4930000000D+00  0.1969178904D+00
  0.9515000000D-01  0.9996994438D-02
  0.4791000000D-01 -0.5401996995D-02
  0.2220000000D-01  0.1703999052D-02
 s   12  1.00
  0.6601000000D+04  0.0000000000D+00
  0.9897000000D+03  0.0000000000D+00
  0.2257000000D+03  0.0000000000D+00
  0.6429000000D+02  0.0000000000D+00
  0.2118000000D+02  0.0000000000D+00
  0.7724000000D+01  0.0000000000D+00
  0.3003000000D+01  0.0000000000D+00
  0.1212000000D+01  0.0000000000D+00
  0.4930000000D+00  0.0000000000D+00
  0.9515000000D-01  0.1000000000D+01
  0.4791000000D-01  0.0000000000D+00
  0.2220000000D-01  0.0000000000D+00
 s   12  1.00
  0.6601000000D+04  0.0000000000D+00
  0.9897000000D+03  0.0000000000D+00
  0.2257000000D+03  0.0000000000D+00
  0.6429000000D+02  0.0000000000D+00
  0.2118000000D+02  0.0000000000D+00
  0.7724000000D+01  0.0000000000D+00
  0.3003000000D+01  0.0000000000D+00
  0.1212000000D+01  0.0000000000D+00
  0.4930000000D+00  0.0000000000D+00
  0.9515000000D-01  0.0000000000D+00
  0.4791000000D-01  0.1000000000D+01
  0.2220000000D-01  0.0000000000D+00
 s   12  1.00
  0.6601000000D+04 -0.1799999437D-04
  0.9897000000D+03 -0.1419999556D-03
  0.2257000000D+03 -0.7409997681D-03
  0.6429000000D+02 -0.3019999055D-02
  0.2118000000D+02 -0.1012299683D-01
  0.7724000000D+01 -0.2709399152D-01
  0.3003000000D+01 -0.5735898205D-01
  0.1212000000D+01 -0.9389497062D-01
  0.4930000000D+00 -0.1210909621D+00
  0.9515000000D-01  0.2766079135D+00
  0.4791000000D-01  0.5495478281D+00
  0.2220000000D-01  0.2773849132D+00
 s   12  1.00
  0.6601000000D+04  0.0000000000D+00
  0.9897000000D+03  0.0000000000D+00
  0.2257000000D+03  0.0000000000D+00
  0.6429000000D+02  0.0000000000D+00
  0.2118000000D+02  0.0000000000D+00
  0.7724000000D+01  0.0000000000D+00
  0.3003000000D+01  0.0000000000D+00
  0.1212000000D+01  0.0000000000D+00
  0.4930000000D+00  0.0000000000D+00
  0.9515000000D-01  0.0000000000D+00
  0.4791000000D-01  0.0000000000D+00
  0.2220000000D-01  0.1000000000D+01
 s    1  1.00
  0.6400000000D-02  0.1000000000D+01
 p    6  1.00
  0.6250000000D+01  0.0000000000D+00
  0.1370000000D+01  0.0000000000D+00
  0.3672000000D+00  0.0000000000D+00
  0.1192000000D+00  0.1000000000D+01
  0.4474000000D-01  0.0000000000D+00
  0.1795000000D-01  0.0000000000D+00
 p    6  1.00
  0.6250000000D+01  0.3388000602D-02
  0.1370000000D+01  0.1931600343D-01
  0.3672000000D+00  0.7910401407D-01
  0.1192000000D+00  0.2740950487D+00
  0.4474000000D-01  0.5194880924D+00
  0.1795000000D-01  0.2844230506D+00
 p    6  1.00
  0.6250000000D+01  0.0000000000D+00
  0.1370000000D+01  0.0000000000D+00
  0.3672000000D+00  0.0000000000D+00
  0.1192000000D+00  0.0000000000D+00
  0.4474000000D-01  0.1000000000D+01
  0.1795000000D-01  0.0000000000D+00
 p    6  1.00
  0.6250000000D+01  0.0000000000D+00
  0.1370000000D+01  0.0000000000D+00
  0.3672000000D+00  0.0000000000D+00
  0.1192000000D+00  0.0000000000D+00
  0.4474000000D-01  0.0000000000D+00
  0.1795000000D-01  0.1000000000D+01
 p    1  1.00
  0.7500000000D-02  0.1000000000D+01
 d    1  1.00
  0.3352000000D+00  0.1000000000D+01
 d    1  1.00
  0.1482000000D+00  0.1000000000D+01
 d    1  1.00
  0.6560000000D-01  0.1000000000D+01
 d    1  1.00
  0.2720000000D-01  0.1000000000D+01
 f    1  1.00
  0.2280000000D+00  0.1000000000D+01
 f    1  1.00
  0.1135000000D+00  0.1000000000D+01
 f    1  1.00
  0.5040000000D-01  0.1000000000D+01
 g    1  1.00
  0.2319000000D+00  0.1000000000D+01
 g    1  1.00
  0.1041000000D+00  0.1000000000D+01
  
   2 0
 s   12  1.00
  0.7453000000D+05  0.9500010373D-04
  0.1117000000D+05  0.7380008058D-03
  0.2543000000D+04  0.3858004212D-02
  0.7210000000D+03  0.1592601739D-01
  0.2359000000D+03  0.5428905928D-01
  0.8560000000D+02  0.1495131632D+00
  0.3355000000D+02  0.3082523366D+00
  0.1393000000D+02  0.3948534311D+00
  0.5915000000D+01  0.2110312304D+00
  0.1843000000D+01  0.1715101873D-01
  0.7124000000D+00 -0.2015002200D-02
  0.2637000000D+00  0.8690009488D-03
 s   12  1.00
  0.7453000000D+05  0.0000000000D+00
  0.1117000000D+05  0.0000000000D+00
  0.2543000000D+04  0.0000000000D+00
  0.7210000000D+03  0.0000000000D+00
  0.2359000000D+03  0.0000000000D+00
  0.8560000000D+02  0.0000000000D+00
  0.3355000000D+02  0.0000000000D+00
  0.1393000000D+02  0.0000000000D+00
  0.5915000000D+01  0.0000000000D+00
  0.1843000000D+01  0.1000000000D+01
  0.7124000000D+00  0.0000000000D+00
  0.2637000000D+00  0.0000000000D+00
 s   12  1.00
  0.7453000000D+05  0.0000000000D+00
  0.1117000000D+05  0.0000000000D+00
  0.2543000000D+04  0.0000000000D+00
  0.7210000000D+03  0.0000000000D+00
  0.2359000000D+03  0.0000000000D+00
  0.8560000000D+02  0.0000000000D+00
  0.3355000000D+02  0.0000000000D+00
  0.1393000000D+02  0.0000000000D+00
  0.5915000000D+01  0.0000000000D+00
  0.1843000000D+01  0.0000000000D+00
  0.7124000000D+00  0.1000000000D+01
  0.2637000000D+00  0.0000000000D+00
 s   12  1.00
  0.7453000000D+05 -0.2199999390D-04
  0.1117000000D+05 -0.1719999523D-03
  0.2543000000D+04 -0.8909997530D-03
  0.7210000000D+03 -0.3747998961D-02
  0.2359000000D+03 -0.1286199643D-01
  0.8560000000D+02 -0.3806098945D-01
  0.3355000000D+02 -0.8623897609D-01
  0.1393000000D+02 -0.1558649568D+00
  0.5915000000D+01 -0.1109139693D+00
  0.1843000000D+01  0.2987609172D+00
  0.7124000000D+00  0.5850128378D+00
  0.2637000000D+00  0.2711589248D+00
 s   12  1.00
  0.7453000000D+05  0.0000000000D+00
  0.1117000000D+05  0.0000000000D+00
  0.2543000000D+04  0.0000000000D+00
  0.7210000000D+03  0.0000000000D+00
  0.2359000000D+03  0.0000000000D+00
  0.8560000000D+02  0.0000000000D+00
  0.3355000000D+02  0.0000000000D+00
  0.1393000000D+02  0.0000000000D+00
  0.5915000000D+01  0.0000000000D+00
  0.1843000000D+01  0.0000000000D+00
  0.7124000000D+00  0.0000000000D+00
  0.2637000000D+00  0.1000000000D+01
 s    1  1.00
  0.8594000000D-01  0.1000000000D+01
 p    6  1.00
  0.8039000000D+02  0.0000000000D+00
  0.1863000000D+02  0.0000000000D+00
  0.5694000000D+01  0.0000000000D+00
  0.1953000000D+01  0.1000000000D+01
  0.6702000000D+00  0.0000000000D+00
  0.2166000000D+00  0.0000000000D+00
 p    6  1.00
  0.8039000000D+02  0.6346999640D-02
  0.1863000000D+02  0.4420399749D-01
  0.5694000000D+01  0.1685139904D+00
  0.1953000000D+01  0.3615629795D+00
  0.6702000000D+00  0.4421779749D+00
  0.2166000000D+00  0.2434349862D+00
 p    6  1.00
  0.8039000000D+02  0.0000000000D+00
  0.1863000000D+02  0.0000000000D+00
  0.5694000000D+01  0.0000000000D+00
  0.1953000000D+01  0.0000000000D+00
  0.6702000000D+00  0.1000000000D+01
  0.2166000000D+00  0.0000000000D+00
 p    6  1.00
  0.8039000000D+02  0.0000000000D+00
  0.1863000000D+02  0.0000000000D+00
  0.5694000000D+01  0.0000000000D+00
  0.1953000000D+01  0.0000000000D+00
  0.6702000000D+00  0.0000000000D+00
  0.2166000000D+00  0.1000000000D+01
 p    1  1.00
  0.6568000000D-01  0.1000000000D+01
 d    1  1.00
  0.5014000000D+01  0.1000000000D+01
 d    1  1.00
  0.1725000000D+01  0.1000000000D+01
 d    1  1.00
  0.5860000000D+00  0.1000000000D+01
 d    1  1.00
  0.2070000000D+00  0.1000000000D+01
 f    1  1.00
  0.3562000000D+01  0.1000000000D+01
 f    1  1.00
  0.1148000000D+01  0.1000000000D+01
 f    1  1.00
  0.4600000000D+00  0.1000000000D+01
 g    1  1.00
  0.2376000000D+01  0.1000000000D+01
 g    1  1.00
  0.9240000000D+00  0.1000000000D+01


[MO]
 Sym=      1.1
 Ene=     -26.4102
 Spin= Alpha
 Occup=    2.000000
1 -0.000001702135823
2 -0.002971847612266
3 0.002466873037536
4 0.000066382138494
5 -0.000133430953074
6 0.000000358415518
7 0.0
8 0.0
9 -0.000670759234864
10 0.0
11 0.0
12 0.000292301948235
13 0.0
14 0.0
15 -0.001528732971115
16 0.0
17 0.0
18 -0.000069368064967
19 0.0
20 0.0
21 -0.000002854995251
22 0.000003492002138
23 0.000003492002135
24 -0.000007759935785
25 0.0
26 0.0
27 0.0
28 0.000015357476552
29 0.000015357476555
30 -0.000170715274833
31 0.0
32 0.0
33 0.0
34 -0.000560850066654
35 -0.000560850066647
36 -0.001075799421590
37 0.0
38 0.0
39 0.0
40 0.000001653086485
41 0.000001653086485
42 0.000037275170871
43 0.0
44 0.0
45 0.0
46 0.0
47 0.0
48 -0.000010821713959
49 0.0
50 0.0
51 0.000009868707535
52 0.0
53 0.0
54 0.000009868707533
55 0.0
56 0.0
57 0.0
58 0.000096827569714
59 0.0
60 0.0
61 0.000127891501432
62 0.0
63 0.0
64 0.000127891501437
65 0.0
66 0.0
67 0.0
68 0.000348316445320
69 0.0
70 0.0
71 0.000179489226666
72 0.0
73 0.0
74 0.000179489226666
75 0.0
76 0.000024490480499
77 0.000024490480500
78 -0.000058792568164
79 0.0
80 0.0
81 0.0
82 0.0
83 0.0
84 0.0
85 0.000014316046404
86 -0.000009031150065
87 -0.000009031150066
88 0.0
89 0.0
90 0.0
91 -0.000014807527896
92 -0.000014807527902
93 0.000058057335900
94 0.0
95 0.0
96 0.0
97 0.0
98 0.0
99 0.0
100 -0.000008671102859
101 0.000028101752405
102 0.000028101752407
103 0.0
104 0.0
105 0.0
106 1.00136820209481
107 0.000498026179209
108 -0.005068017064188
109 0.005542834981571
110 0.002633001841985
111 0.002468212593663
112 0.0
113 0.0
114 0.000598200380715
115 0.0
116 0.0
117 -0.001134722043659
118 0.0
119 0.0
120 0.000362484483295
121 0.0
122 0.0
123 -0.000403120143581
124 0.0
125 0.0
126 -0.000283681255991
127 -0.000797843169375
128 -0.000797843169605
129 -0.000786966302194
130 0.0
131 0.0
132 0.0
133 0.001217101359849
134 0.001217101360992
135 0.001232801946391
136 0.0
137 0.0
138 0.0
139 -0.002708974372369
140 -0.002708974372213
141 -0.002858115114040
142 0.0
143 0.0
144 0.0
145 -0.000556044315698
146 -0.000556044315723
147 -0.000419013586248
148 0.0
149 0.0
150 0.0
151 0.0
152 0.0
153 -0.000070756461537
154 0.0
155 0.0
156 -0.000028674235783
157 0.0
158 0.0
159 -0.000028674235789
160 0.0
161 0.0
162 0.0
163 0.000035098145677
164 0.0
165 0.0
166 0.000019157837100
167 0.0
168 0.0
169 0.000019157837084
170 0.0
171 0.0
172 0.0
173 0.000183313276047
174 0.0
175 0.0
176 0.000078728235996
177 0.0
178 0.0
179 0.000078728235995
180 0.0
181 -0.000864627684230
182 -0.000864627684913
183 -0.000853491045488
184 0.0
185 0.0
186 0.0
187 0.0
188 0.0
189 0.0
190 -0.000507838628220
191 -0.000504882087012
192 -0.000504882087214
193 0.0
194 0.0
195 0.0
196 0.001254574635647
197 0.001254574635501
198 0.001332004505330
199 0.0
200 0.0
201 0.0
202 0.0
203 0.0
204 0.0
205 0.000733992546359
206 0.000759895828978
207 0.000759895828936
208 0.0
209 0.0
210 0.0
 Sym=      2.1
 Ene=      -2.4703
 Spin= Alpha
 Occup=    2.000000
1 1.00147771063645
2 -0.069063557178871
3 0.11748159343449
4 0.024626057189154
5 -0.021073791233024
6 0.000164199164433
7 0.0
8 0.0
9 -0.007527181904276
10 0.0
11 0.0
12 0.011262411509592
13 0.0
14 0.0
15 -0.011085711892638
16 0.0
17 0.0
18 -0.003415792878292
19 0.0
20 0.0
21 0.000042815464646
22 0.001529667284958
23 0.001529667284752
24 0.000564378786498
25 0.0
26 0.0
27 0.0
28 -0.015966765834076
29 -0.015966765832995
30 -0.014498205261715
31 0.0
32 0.0
33 0.0
34 -0.028054330256809
35 -0.028054330256529
36 -0.029110920685730
37 0.0
38 0.0
39 0.0
40 0.001746659470997
41 0.001746659470977
42 0.001788813555039
43 0.0
44 0.0
45 0.0
46 0.0
47 0.0
48 0.001738148023261
49 0.0
50 0.0
51 0.001030409121167
52 0.0
53 0.0
54 0.001030409121149
55 0.0
56 0.0
57 0.0
58 0.004427235250556
59 0.0
60 0.0
61 0.001206862283608
62 0.0
63 0.0
64 0.001206862283587
65 0.0
66 0.0
67 0.0
68 0.001718301727345
69 0.0
70 0.0
71 0.000770613541231
72 0.0
73 0.0
74 0.000770613541226
75 0.0
76 0.006533403493738
77 0.006533403493083
78 0.006601930163741
79 0.0
80 0.0
81 0.0
82 0.0
83 0.0
84 0.0
85 0.003825437693470
86 0.003896171222936
87 0.003896171222718
88 0.0
89 0.0
90 0.0
91 0.002911596720504
92 0.002911596720180
93 0.004463237178195
94 0.0
95 0.0
96 0.0
97 0.0
98 0.0
99 0.0
100 0.001704802779855
101 0.001951078732639
102 0.001951078732557
103 0.0
104 0.0
105 0.0
106 -0.000453871582234
107 -0.000338306786610
108 -0.000789209904434
109 0.030786962827611
110 -0.002073022929076
111 -0.000339124111454
112 0.0
113 0.0
114 0.000496529583081
115 0.0
116 0.0
117 -0.009342015624847
118 0.0
119 0.0
120 -0.000382885509063
121 0.0
122 0.0
123 0.001810532662793
124 0.0
125 0.0
126 0.000133042326605
127 -0.000021661403398
128 -0.000021661403711
129 0.000315717055457
130 0.0
131 0.0
132 0.0
133 -0.000320811009411
134 -0.000320811007950
135 0.000269607167242
136 0.0
137 0.0
138 0.0
139 0.000001385866777
140 0.000001385866587
141 0.001530321572839
142 0.0
143 0.0
144 0.0
145 -0.001232863422877
146 -0.001232863423132
147 -0.000093618790552
148 0.0
149 0.0
150 0.0
151 0.0
152 0.0
153 -0.000160752732872
154 0.0
155 0.0
156 -0.000052863811565
157 0.0
158 0.0
159 -0.000052863811562
160 0.0
161 0.0
162 0.0
163 -0.000957781453903
164 0.0
165 0.0
166 0.000207337251704
167 0.0
168 0.0
169 0.000207337251699
170 0.0
171 0.0
172 0.0
173 -0.001195623952678
174 0.0
175 0.0
176 0.000081401107217
177 0.0
178 0.0
179 0.000081401107231
180 0.0
181 -0.000050381918770
182 -0.000050381919655
183 0.000426838770464
184 0.0
185 0.0
186 0.0
187 0.0
188 0.0
189 0.0
190 -0.000030032600029
191 0.000062405189138
192 0.000062405188883
193 0.0
194 0.0
195 0.0
196 -0.000359685337503
197 -0.000359685337540
198 0.000929751723104
199 0.0
200 0.0
201 0.0
202 0.0
203 0.0
204 0.0
205 -0.000212479339917
206 -0.000275619770700
207 -0.000275619770728
208 0.0
209 0.0
210 0.0
 Sym=      3.1
 Ene=      -1.6259
 Spin= Alpha
 Occup=    2.000000
1 -0.049751765540196
2 0.69407530255169
3 -1.48257966144597
4 0.12566514457139
5 0.47488222208455
6 -0.001370067091385
7 0.0
8 0.0
9 -0.060112949153093
10 0.0
11 0.0
12 0.19682510821057
13 0.0
14 0.0
15 -0.068142215187953
16 0.0
17 0.0
18 -0.055200265479817
19 0.0
20 0.0
21 -0.000163058509215
22 -0.010203813108498
23 -0.010203813108699
24 0.010773039039021
25 0.0
26 0.0
27 0.0
28 0.033007483439639
29 0.033007483439852
30 0.003470869259920
31 0.0
32 0.0
33 0.0
34 0.17897681322237
35 0.17897681322286
36 0.17887683490272
37 0.0
38 0.0
39 0.0
40 -0.089752840861902
41 -0.089752840861988
42 -0.090019918966018
43 0.0
44 0.0
45 0.0
46 0.0
47 0.0
48 0.023750231958290
49 0.0
50 0.0
51 0.002168242919856
52 0.0
53 0.0
54 0.002168242919912
55 0.0
56 0.0
57 0.0
58 -0.007135981881033
59 0.0
60 0.0
61 -0.002453517383606
62 0.0
63 0.0
64 -0.002453517383745
65 0.0
66 0.0
67 0.0
68 -0.010800942376091
69 0.0
70 0.0
71 -0.005016104512015
72 0.0
73 0.0
74 -0.005016104512090
75 0.0
76 -0.009863496217047
77 -0.009863496217253
78 0.019728823166207
79 0.0
80 0.0
81 0.0
82 0.0
83 0.0
84 0.0
85 -0.005778793076610
86 0.000136103104381
87 0.000136103104404
88 0.0
89 0.0
90 0.0
91 0.015901592181143
92 0.015901592180703
93 0.020427136589043
94 0.0
95 0.0
96 0.0
97 0.0
98 0.0
99 0.0
100 0.009310235777949
101 0.011367154365782
102 0.011367154365520
103 0.0
104 0.0
105 0.0
106 -0.005677197784737
107 0.015539079441458
108 0.038457555015466
109 0.97090101651641
110 -0.15287856243394
111 -0.028025297476910
112 0.0
113 0.0
114 0.003129543210191
115 0.0
116 0.0
117 -0.029260253528630
118 0.0
119 0.0
120 -0.012182920356177
121 0.0
122 0.0
123 0.016279753073603
124 0.0
125 0.0
126 0.004785893372870
127 0.002541310494837
128 0.002541310495149
129 0.002553916553404
130 0.0
131 0.0
132 0.0
133 -0.002503859811651
134 -0.002503859814692
135 -0.002316931559426
136 0.0
137 0.0
138 0.0
139 0.062761088570450
140 0.062761088567137
141 0.078458018591552
142 0.0
143 0.0
144 0.0
145 0.012036529699193
146 0.012036529697981
147 0.010103140942978
148 0.0
149 0.0
150 0.0
151 0.0
152 0.0
153 -0.000190177290463
154 0.0
155 0.0
156 -0.000100537809781
157 0.0
158 0.0
159 -0.000100537809814
160 0.0
161 0.0
162 0.0
163 0.002506968097472
164 0.0
165 0.0
166 0.001661503932096
167 0.0
168 0.0
169 0.001661503931863
170 0.0
171 0.0
172 0.0
173 -0.003935268772563
174 0.0
175 0.0
176 0.001401738983761
177 0.0
178 0.0
179 0.001401738983337
180 0.0
181 0.001622107085423
182 0.001622107086952
183 0.000696243974144
184 0.0
185 0.0
186 0.0
187 0.0
188 0.0
189 0.0
190 0.000938865453714
191 0.000840536204207
192 0.000840536204583
193 0.0
194 0.0
195 0.0
196 -0.017798589683650
197 -0.017798589681561
198 -0.021414581019588
199 0.0
200 0.0
201 0.0
202 0.0
203 0.0
204 0.0
205 -0.010459598114316
206 -0.012591799631674
207 -0.012591799631086
208 0.0
209 0.0
210 0.0
 Sym=      4.1
 Ene=      -0.6546
 Spin= Alpha
 Occup=    1.732348
1 0.0
2 0.0
3 0.0
4 0.0
5 0.0
6 0.0
7 -0.030814051772876
8 0.0
9 0.0
10 0.19889264812225
11 0.0
12 0.0
13 -0.11357588620951
14 0.0
15 0.0
16 -0.056007202635489
17 0.0
18 0.0
19 -0.000089368342258
20 0.0
21 0.0
22 0.0
23 0.0
24 0.0
25 0.0
26 0.004510429201447
27 0.0
28 0.0
29 0.0
30 0.0
31 0.0
32 0.037816227035461
33 0.0
34 0.0
35 0.0
36 0.0
37 0.0
38 -0.022490952031719
39 0.0
40 0.0
41 0.0
42 0.0
43 0.0
44 -0.000802190564493
45 0.0
46 0.000984270411212
47 0.0
48 0.0
49 0.000419786645212
50 0.0
51 0.0
52 0.007054866190045
53 0.0
54 0.0
55 0.0
56 -0.002846631953281
57 0.0
58 0.0
59 -0.001322042105095
60 0.0
61 0.0
62 0.013363801530103
63 0.0
64 0.0
65 0.0
66 0.001118552706696
67 0.0
68 0.0
69 0.000501101540041
70 0.0
71 0.0
72 -0.003148106199896
73 0.0
74 0.0
75 0.0
76 0.0
77 0.0
78 0.0
79 0.0
80 -0.006050613020630
81 0.0
82 0.0
83 -0.002549339907773
84 0.0
85 0.0
86 0.0
87 0.0
88 0.0
89 -0.002734081823157
90 0.0
91 0.0
92 0.0
93 0.0
94 0.0
95 0.006562857756644
96 0.0
97 0.0
98 0.012504893938743
99 0.0
100 0.0
101 0.0
102 0.0
103 0.0
104 0.002885550059735
105 0.0
106 0.0
107 0.0
108 0.0
109 0.0
110 0.0
111 0.0
112 0.044955593834103
113 0.0
114 0.0
115 0.98385399202094
116 0.0
117 0.0
118 -0.17176767988021
119 0.0
120 0.0
121 -0.10985989812280
122 0.0
123 0.0
124 0.034660634761657
125 0.0
126 0.0
127 0.0
128 0.0
129 0.0
130 0.0
131 -0.000229518397062
132 0.0
133 0.0
134 0.0
135 0.0
136 0.0
137 -0.000205794022684
138 0.0
139 0.0
140 0.0
141 0.0
142 0.0
143 -0.027436273732233
144 0.0
145 0.0
146 0.0
147 0.0
148 0.0
149 0.005152200549865
150 0.0
151 0.004029509724904
152 0.0
153 0.0
154 0.001544197406661
155 0.0
156 0.0
157 0.001906222748093
158 0.0
159 0.0
160 0.0
161 0.083631927035778
162 0.0
163 0.0
164 0.036524899345975
165 0.0
166 0.0
167 0.039222766327885
168 0.0
169 0.0
170 0.0
171 0.066732307418890
172 0.0
173 0.0
174 0.029309437386596
175 0.0
176 0.0
177 0.034297948712315
178 0.0
179 0.0
180 0.0
181 0.0
182 0.0
183 0.0
184 0.0
185 0.000707677815883
186 0.0
187 0.0
188 0.001024883680610
189 0.0
190 0.0
191 0.0
192 0.0
193 0.0
194 0.000309131148882
195 0.0
196 0.0
197 0.0
198 0.0
199 0.0
200 0.007604803360574
201 0.0
202 0.0
203 0.004778545020373
204 0.0
205 0.0
206 0.0
207 0.0
208 0.0
209 0.003417417447220
210 0.0
 Sym=      9.1
 Ene=       1.2510
 Spin= Alpha
 Occup=    0.014301
1 0.0
2 0.0
3 0.0
4 0.0
5 0.0
6 0.0
7 -0.11871737868471
8 0.0
9 0.0
10 0.53327392694532
11 0.0
12 0.0
13 -0.25193382324906
14 0.0
15 0.0
16 -0.14765305235451
17 0.0
18 0.0