[Molden Format]
[Molpro variables]
_NUMVAR=  894.0000000000000    
_AVOGAD= 0.6022136736000000E+24
_BOLTZ= 0.1380658000000000E-22
_CLIGHT=  29979245800.00000    
_EV= 0.3674932379085202E-01
_ENULL= 0.8854187817000000E-11
_KJOULE= 0.3808798324128737E-03
_KJOULE/MOL= 0.3808798324128737E-03
_CM= 0.4556335267302901E-05
_CM-1= 0.4556335267302901E-05
_DEB2SI= 0.3335641000000000E-29
_AMU2AU=  1822.888390000000    
_KCAL= 0.1593601117815568E-02
_KCAL/MOL= 0.1593601117815568E-02
_KELVIN= 0.3166811411060229E-05
_JOULE= 0.4359748200000000E-17
_HERTZ= 0.1519829846004524E-15
_HZ= 0.1519829846004524E-15
_JPCAL=  4.184000000000000    
_PLANCK= 0.6626075540000000E-33
_TOA= 0.5291772109200000    
_TOANG= 0.5291772109200000    
_TORAD= 0.1745329251994330E-01
_TOCM=  219474.6306700000    
_TODEBYE=  2.541580000000000    
_TOE= 0.4803242000000000E-09
_TOEV=  27.21138505000000    
_TOHERTZ=  6579683920729000.    
_TOHZ=  6579683920729000.    
_TOK=  315775.0400000000    
_TOKCAL=  627.5096000000000    
_TOKELVIN=  315775.0400000000    
_TOKJ=  2625.500000000000    
_TOKJOULE=  2625.500000000000    
_TOKG= 0.1660565586000000E-26
_ANG=  1.889726124565062    
_ANGSTROM=  1.889726124565062    
_RPAREF=  0.000000000000000    
_RPADISS=  0.000000000000000    
_IGNORE_UNDEF=  2.000000000000000    
_STRICTCHECK=  0.000000000000000    
_SEW_ONEEL=  0.000000000000000    
_CPPDONE=FALSE
_DKROLL_DONE=  0.000000000000000    
_FOCKDONE=TRUE
_GRADONE=FALSE
_HESSDONE=FALSE
_INTDONE=TRUE
_SCFDONE=TRUE
_MODUL_BLOCK=TRUE
_MODUL_CUDA=FALSE
_MODUL_SLATER=FALSE
_MODUL_MRCC=FALSE
_MODUL_NBO6=FALSE
_MODUL_NECI=TRUE
_MODUL_AIMS=TRUE
_MRCC_EXEC=
_FITC_AO_SAVED=FALSE
_FITC_MO_SAVED=FALSE
_SHARED_FS=TRUE
_LSTYP=SEWARD
_INTYP=INTS
_GEOMTYP=ZMAT
_GRADTYP=ALASKA
_DIRECT=FALSE
_DKHO= -1.000000000000000    
_SYNCM=  0.000000000000000    
_BASIS=F=AVTZ,LI=VTZ
_ZUNIT=ANG
_ZORIENT=  0.000000000000000    
_NELEC=  12.00000000000000    
!SPIN=  0.000000000000000    
_QSDSTEP=  0.000000000000000    
_QSDIRC=  0.000000000000000    
_PROGRAM=MULTI
_CPUSTEP= 0.1400000000000000    
_SYSSTEP= 0.4000000000000004E-01
_WALLSTEP= 0.1900000000000000    
!DFSCF=  0.000000000000000    
!SCSGRD=  0.000000000000000    
_BASINP=  610.0000000000000    
_CPUTOT= 0.5300000000000000    
_DFTEXFAC=  1.000000000000000    
_DMX=  0.000000000000000    
_DMY=  0.000000000000000    
_DMZ= 0.3507397813073680    
_DMX_SCF=  0.000000000000000    
_DMY_SCF=  0.000000000000000    
_DMZ_SCF= -2.570399589517699    
_EHOMO=-0.4744156212224527    
_ELUMO=-0.4638930593521115E-02
_EIGS= -26.11408657916299    
_ENERGY= -103.8336745523305    
_ENERGY_METHOD=MULTI
_ENERGY_BASIS=F=AVTZ,LI=VTZ
_GEOMETRY_METHOD=
_GEOMETRY_BASIS=
_ENUC=  9.042901705594938    
_EPS1= -28.24157933293253    
_EPS2= -1.229855749028426    
_EPS3= -1.229855749028426    
_EPS4= 0.1505973739333799    
_GRADEXFAC=  9999.000000000000    
_GRADMETHOD=TRUE
_NMRMETHOD=  0.000000000000000    
_NMRMAGNET=  0.000000000000000    
!GRID_FREEZE= -1.000000000000000    
_ITERATIONS=  7.000000000000000    
_LASTNELEC=  6.000000000000000    
_LASTSPIN=  0.000000000000000    
_LASTSYM=  1.000000000000000    
_MPP_PROG=  0.000000000000000    
_MSNSTATES=  0.000000000000000    
_RS2PHASE=  0.000000000000000    
_NPROC_MPP=  1.000000000000000    
_NPROC_MPPX=  1.000000000000000    
_NPROC_SMP=  1.000000000000000    
_NUMSTEP=  0.000000000000000    
_ORBITAL=  2140.200000000000    
_PI=  3.141592653589793    
!MCACT=  4.000000000000000    
!MCCLOSED=  3.000000000000000    
!MCFREEZE=  0.000000000000000    
!MCMS2=  0.000000000000000    
!MCNEL=  6.000000000000000    
!MCNSTSYM=  1.000000000000000    
!MCSTATE=  2.000000000000000    
!MCSYM=  1.000000000000000    
!MCWEIGHT= 0.5000000000000000    
_SEIG_MIN= 0.4806399321162989E-03
_SEWPROP=TRUE
_STATUS=  1.000000000000000    
_SYSTOT= 0.3100000000000000    
_VERSION=  2015001.000000000    
_WALLTOT=  1.340000000000000    
_DATE=06-Jul-23
_LASTORB=MCSCF
_MACHINE= 64 bit serial version
_OUTPUT=/scratch/5089807.1.multiway.q/lif-eq-z.xml
_PGROUP=C2v
_TIME=12:03:12
_LIBMOL=/home/lambda/ajmk/chem1721/GroupPrograms/Molpro2015/molpro2015/lib/
_VIGRDC=  0.000000000000000    
!VIBCNT=  0.000000000000000    
!RGHFCNT=  0.000000000000000    
!SURFREC=  0.000000000000000    
!ROTREC=  0.000000000000000    
!POLYREC=  0.000000000000000    
!DIPREC=  0.000000000000000    
!DIP4DREC=  0.000000000000000    
!DIPROT=  0.000000000000000    
!DIP4DROT=  0.000000000000000    
!PTREC=  0.000000000000000    
!PT4DREC=  0.000000000000000    
!VSCFREC=  0.000000000000000    
!VCIREC=  0.000000000000000    
!PVCIREC=  0.000000000000000    
!VMP2REC=  0.000000000000000    
!VMCSCFREC=  0.000000000000000    
!VMRCIREC=  0.000000000000000    
!VIBSTATEREC=  0.000000000000000    
!VIBSTATECNT=  0.000000000000000    
!VIBINFO=  0.000000000000000    
!GAREC=  0.000000000000000    
!SCFORB=  21002.00000000000    
!MCORB=  21402.00000000000    
!NEWMOL= -1.000000000000000    
!NEWSYM= -1.000000000000000    
_SLFILES=slscratch
_NGSSTO=  9.000000000000000    
_SIN=SIN
_COS=COS
_TAN=TAN
_ACOS=ACOS
_ASIN=ASIN
_ATAN=ATAN
_COSH=COSH
_SINH=SINH
_TANH=TANH
_ABS=ABS
_MOD=MOD
_ERF=ERF
_REFC=REFC
_ERFC=ERFC
_HYPOT=HYPOT
_J0=J0
_J1=J1
_JN=JN
_GAMMA=GAMMA
_LGAMMA=LGAMMA
_Y0=Y0
_Y1=Y1
_YN=YN
_EXP=EXP
_LOG=LOG
_LOG10=LOG10
_SQRT=SQRT
_INT=INT
_NINT=NINT
_MAX=MAX
_MIN=MIN
_COSMO=  0.000000000000000    
_COSMOIT=  0.000000000000000    
_COSMOES=  0.000000000000000    
_COSMOEDS=  0.000000000000000    
_COSMOEC=  0.000000000000000    
_COSMOEDCORR=  0.000000000000000    
_FEPSI=  1.000000000000000    
_SL_IsMM=  0.000000000000000    
_SL_NSYM=  4.000000000000000    
_SL_System_BitSw=  0.000000000000000    
_SL_Unique_atoms=  0.000000000000000    
_SL_GRAD=  0.000000000000000    
_SL_MAXUPD_Hess=  5.000000000000000    
_SL_N_PRINT_COD=  5.000000000000000    
_SL_PRINT_CODES=  0.000000000000000    
_SL_BasType=  0.000000000000000    
_SL_Energy_Pred=  0.000000000000000    
_SL_New_Coords=  0.000000000000000    
_SL_Total_Nuclea=  0.000000000000000    
_SL_Highest_Mltp=  0.000000000000000    
_SL_Ref_Geom=  0.000000000000000    
_SL_Symmetry_ope=  1.000000000000000    
_SL_agrad=  0.000000000000000    
_SL_GrdMax=  0.000000000000000    
_SL_GrdNorm=  0.000000000000000    
_SL_GrdRMS=  0.000000000000000    
_SL_Hss_Q=  0.000000000000000    
_SL_Hss_X=  0.000000000000000    
_SL_BMxOld=  0.000000000000000    
_SL_KtB=  0.000000000000000    
_SL_TROld=  0.000000000000000    
_SL_No_of_Intern=  0.000000000000000    
_SL_Hess=  0.000000000000000    
_SL_K=  0.000000000000000    
!LATTICE= -1.000000000000000    
!NEWLATTICE=  0.000000000000000    
!LATGRAD_VAR=FALSE
!SEW_LATTICE=  1.000000000000000    
!LOCAL=  0.000000000000000    
!SAVEDOM= -1.000000000000000    
!RESTDOM= -1.000000000000000    
!SAVEDOM_HF= -1.000000000000000    
!RESTDOM_HF= -1.000000000000000    
!HESSREC=  0.000000000000000    
!FREQREC=  0.000000000000000    
!NMODREC=  0.000000000000000    
!GTASKS=  0.000000000000000    
!HTASKS=  0.000000000000000    
!SAVEDOM_EOM= -1.000000000000000    
!RESTDOM_EOM= -1.000000000000000    
!GRADSTATE= -1.000000000000000    
!THRCHG= 0.1000000000000000    
!DEBUG= -1.000000000000000    
!CFIT_CPHF=  0.000000000000000    
!RDOMAUX_CPHF=  3.000000000000000    
!THRAO_CPHF= 0.1000000000000000E-09
!THRMO_CPHF= 0.1000000000000000E-08
!THROV_CPHF= 0.1000000000000000E-11
!THRSW_CPHF= 0.1000000000000000E-09
!THRPROD_CPHF= 0.1000000000000000E-08
!THRAOPR_CPHF= 0.1000000000000000E-11
!CFIT_SCFGRD=  0.000000000000000    
!RDOMAUX_SCFGRD=  5.000000000000000    
!THRAO_SCFGRD= 0.1000000000000000E-09
!THRMO_SCFGRD= 0.1000000000000000E-08
!THROV_SCFGRD= 0.1000000000000000E-11
!THRSW_SCFGRD= 0.1000000000000000E-09
!THRPROD_SCFGRD= 0.1000000000000000E-08
!THRAOPR_SCFGRD= 0.1000000000000000E-11
!LOCFIT_SCF=  0.000000000000000    
!LOCFIT_MP2= -1.000000000000000    
_RIDOM=  0.000000000000000    
!CC2_METHOD=  0.000000000000000    
_BASIS2006=FALSE
_SVDDEL= -1.000000000000000    
_SVDDELA= -1.000000000000000    
_SVDDELP= -1.000000000000000    
_SVDDELF= -1.000000000000000    
_SVDDELS= -1.000000000000000    
_SVDDEL_ABS= -1.000000000000000    
_SVDDELA_ABS= -1.000000000000000    
_SVDDELP_ABS= -1.000000000000000    
_SVDDELF_ABS= -1.000000000000000    
_SVDDELS_ABS= -1.000000000000000    
_MAXBASIS=  0.000000000000000    
!OPT_CONICAL=  0.000000000000000    
!CLEARSP_JGRID=  0.000000000000000    
_GRDHYBR=  0.000000000000000    
_STATEGRAD=  1.000000000000000    
_4EXT_NDISKS=  1.000000000000000    
!ZMP=  0.000000000000000    
_MAXIT_ZMP=  500.0000000000000    
_MAXDIS_ZMP=  100.0000000000000    
_ACCU_ZMP=  14.00000000000000    
_SHIFTA_ZMP= -100.0000000000000    
!EMBEDFLAG=  1.000000000000000    
!EMBED=FALSE
!EMBED_F12=FALSE
!EMBEDNUC=  0.000000000000000    
_EMBEDENERGY=  0.000000000000000    
_KSPACETIME=  0.000000000000000    
_RSPACETIME=  0.000000000000000    
!EMBED_DFC=FALSE
!NUM_VOIDS=  0.000000000000000    
_IBODY=  0.000000000000000    
_EMBE_TOTAL=  0.000000000000000    
_EMBE_HF=  0.000000000000000    
_EMBE_CORR=  0.000000000000000    
!EMBED_PROJ=FALSE
!EMBED_TRUNC=  0.000000000000000    
!EMB_PROJ_ZMU=  1000000.000000000    
!CORRECTION=  0.000000000000000    
!CORRECTION_HF=  0.000000000000000    
!EMBED_ENERGY=  0.000000000000000    
!EMBED_NAXC=FALSE
!EMBED_AORB=  0.000000000000000    
!EMBED_NACORR=  0.000000000000000    
!EMBED_MP2=FALSE
!EMBED_TRUNC_PERTURBATION=FALSE
!EMBED_FROZEN=  0.000000000000000    
_CHANGE_BASIS=FALSE
_RESTORE_BASIS=FALSE
_FIX_EMBED_GUESS=FALSE
!EDFT=  0.000000000000000    
_IFASTLATGRAD=  0.000000000000000    
_SINDEX=  0.000000000000000    
_AVDOM_OSV=  0.000000000000000    
_AVDOM_PNO=  0.000000000000000    
_AVDOM_PAO=  0.000000000000000    
_AVDOM_LMO=  0.000000000000000    
_CC2OSV_FLAG=  0.000000000000000    
_TMADC2_FLAG=FALSE
_PROPADC2_FLAG=FALSE
_LEN_VirQ=  0.000000000000000    
_GRDCC2LR_FLAG=FALSE
_GRDADC2_FLAG=FALSE
_DMX_CC= -0.000000000000000    
_DMY_CC= -0.000000000000000    
_DMZ_CC= -3.776542371283255    
_DMX_NUC=  0.000000000000000    
_DMY_NUC=  0.000000000000000    
_DMZ_NUC=  8.957301830435998    
GEOMTYP=XYZ
GX1=  0.000000000000000    
GY1=  0.000000000000000    
GZ1=-0.7899999999999999    
GX2=  0.000000000000000    
GY2=  0.000000000000000    
GZ2= 0.7899999999999999    
_TRDMX= -0.000000000000000    
_TRDMY= -0.000000000000000    
_TRDMZ= -3.194917653247114    
[Atoms] Angs
LI    1    3         0.0000000000        0.0000000000       -0.7900000000
F     2    9         0.0000000000        0.0000000000        0.7900000000
[GTO]
   1 0
 s   11  1.00
  0.5988000000D+04  0.1329999901D-03
  0.8989000000D+03  0.1024999924D-02
  0.2059000000D+03  0.5271999607D-02
  0.5924000000D+02  0.2092899844D-01
  0.1987000000D+02  0.6633999506D-01
  0.7406000000D+01  0.1657749877D+00
  0.2930000000D+01  0.3150379765D+00
  0.1189000000D+01  0.3935229707D+00
  0.4798000000D+00  0.1908699858D+00
  0.7509000000D-01  0.5413999597D-02
  0.2832000000D-01 -0.1327999901D-02
 s   11  1.00
  0.5988000000D+04 -0.2100000605D-04
  0.8989000000D+03 -0.1610000464D-03
  0.2059000000D+03 -0.8200002362D-03
  0.5924000000D+02 -0.3326000958D-02
  0.1987000000D+02 -0.1051900303D-01
  0.7406000000D+01 -0.2809700809D-01
  0.2930000000D+01 -0.5593601611D-01
  0.1189000000D+01 -0.9923702859D-01
  0.4798000000D+00 -0.1121890323D+00
  0.7509000000D-01  0.5678891636D+00
  0.2832000000D-01  0.5303821528D+00
 s   11  1.00
  0.5988000000D+04  0.0000000000D+00
  0.8989000000D+03  0.0000000000D+00
  0.2059000000D+03  0.0000000000D+00
  0.5924000000D+02  0.0000000000D+00
  0.1987000000D+02  0.0000000000D+00
  0.7406000000D+01  0.0000000000D+00
  0.2930000000D+01  0.0000000000D+00
  0.1189000000D+01  0.0000000000D+00
  0.4798000000D+00  0.0000000000D+00
  0.7509000000D-01  0.1000000000D+01
  0.2832000000D-01  0.0000000000D+00
 s   11  1.00
  0.5988000000D+04  0.0000000000D+00
  0.8989000000D+03  0.0000000000D+00
  0.2059000000D+03  0.0000000000D+00
  0.5924000000D+02  0.0000000000D+00
  0.1987000000D+02  0.0000000000D+00
  0.7406000000D+01  0.0000000000D+00
  0.2930000000D+01  0.0000000000D+00
  0.1189000000D+01  0.0000000000D+00
  0.4798000000D+00  0.0000000000D+00
  0.7509000000D-01  0.0000000000D+00
  0.2832000000D-01  0.1000000000D+01
 p    5  1.00
  0.3266000000D+01  0.8630004765D-02
  0.6511000000D+00  0.4753802625D-01
  0.1696000000D+00  0.2097721158D+00
  0.5578000000D-01  0.5285222918D+00
  0.2050000000D-01  0.3827442113D+00
 p    5  1.00
  0.3266000000D+01  0.0000000000D+00
  0.6511000000D+00  0.0000000000D+00
  0.1696000000D+00  0.0000000000D+00
  0.5578000000D-01  0.1000000000D+01
  0.2050000000D-01  0.0000000000D+00
 p    5  1.00
  0.3266000000D+01  0.0000000000D+00
  0.6511000000D+00  0.0000000000D+00
  0.1696000000D+00  0.0000000000D+00
  0.5578000000D-01  0.0000000000D+00
  0.2050000000D-01  0.1000000000D+01
 d    1  1.00
  0.1900000000D+00  0.1000000000D+01
 d    1  1.00
  0.7250000000D-01  0.1000000000D+01
 f    1  1.00
  0.1270000000D+00  0.1000000000D+01
  
   2 0
 s   10  1.00
  0.1950000000D+05  0.5070001688D-03
  0.2923000000D+04  0.3923001306D-02
  0.6645000000D+03  0.2020000673D-01
  0.1875000000D+03  0.7901002631D-01
  0.6062000000D+02  0.2304390767D+00
  0.2142000000D+02  0.4328721441D+00
  0.7950000000D+01  0.3499641165D+00
  0.2257000000D+01  0.4323301440D-01
  0.8815000000D+00 -0.7892002628D-02
  0.3041000000D+00  0.2384000794D-02
 s   10  1.00
  0.1950000000D+05 -0.1169999533D-03
  0.2923000000D+04 -0.9119996360D-03
  0.6645000000D+03 -0.4716998117D-02
  0.1875000000D+03 -0.1908599238D-01
  0.6062000000D+02 -0.5965497619D-01
  0.2142000000D+02 -0.1400099441D+00
  0.7950000000D+01 -0.1767819294D+00
  0.2257000000D+01  0.1716249315D+00
  0.8815000000D+00  0.6050427585D+00
  0.3041000000D+00  0.3695118525D+00
 s   10  1.00
  0.1950000000D+05  0.0000000000D+00
  0.2923000000D+04  0.0000000000D+00
  0.6645000000D+03  0.0000000000D+00
  0.1875000000D+03  0.0000000000D+00
  0.6062000000D+02  0.0000000000D+00
  0.2142000000D+02  0.0000000000D+00
  0.7950000000D+01  0.0000000000D+00
  0.2257000000D+01  0.1000000000D+01
  0.8815000000D+00  0.0000000000D+00
  0.3041000000D+00  0.0000000000D+00
 s   10  1.00
  0.1950000000D+05  0.0000000000D+00
  0.2923000000D+04  0.0000000000D+00
  0.6645000000D+03  0.0000000000D+00
  0.1875000000D+03  0.0000000000D+00
  0.6062000000D+02  0.0000000000D+00
  0.2142000000D+02  0.0000000000D+00
  0.7950000000D+01  0.0000000000D+00
  0.2257000000D+01  0.0000000000D+00
  0.8815000000D+00  0.0000000000D+00
  0.3041000000D+00  0.1000000000D+01
 s    1  1.00
  0.9158000000D-01  0.1000000000D+01
 p    5  1.00
  0.4388000000D+02  0.1666500251D-01
  0.9926000000D+01  0.1044720157D+00
  0.2930000000D+01  0.3172600478D+00
  0.9132000000D+00  0.4873430734D+00
  0.2672000000D+00  0.3346040504D+00
 p    5  1.00
  0.4388000000D+02  0.0000000000D+00
  0.9926000000D+01  0.0000000000D+00
  0.2930000000D+01  0.0000000000D+00
  0.9132000000D+00  0.1000000000D+01
  0.2672000000D+00  0.0000000000D+00
 p    5  1.00
  0.4388000000D+02  0.0000000000D+00
  0.9926000000D+01  0.0000000000D+00
  0.2930000000D+01  0.0000000000D+00
  0.9132000000D+00  0.0000000000D+00
  0.2672000000D+00  0.1000000000D+01
 p    1  1.00
  0.7361000000D-01  0.1000000000D+01
 d    1  1.00
  0.3107000000D+01  0.1000000000D+01
 d    1  1.00
  0.8550000000D+00  0.1000000000D+01
 d    1  1.00
  0.2920000000D+00  0.1000000000D+01
 f    1  1.00
  0.1917000000D+01  0.1000000000D+01
 f    1  1.00
  0.7240000000D+00  0.1000000000D+01


[MO]
 Sym=      1.1
 Ene=     -28.2416
 Spin= Alpha
 Occup=    2.000000
1 0.000847605159196
2 0.001705856907982
3 -0.001026482674493
4 -0.000642188716010
5 0.0
6 0.0
7 -0.003611020208808
8 0.0
9 0.0
10 0.002044677575611
11 0.0
12 0.0
13 0.001338960424447
14 0.000270016514603
15 0.000270016514603
16 -0.000540033029206
17 0.0
18 0.0
19 0.0
20 0.000084372020245
21 0.000084372020245
22 -0.000168744040490
23 0.0
24 0.0
25 0.0
26 0.0
27 0.0
28 -0.000304694954385
29 0.0
30 0.0
31 0.000204395589122
32 0.0
33 0.0
34 0.000204395589122
35 0.0
36 1.00107263110512
37 -0.005020697144757
38 -0.002708592935995
39 0.003905879975805
40 -0.001613223735679
41 0.0
42 0.0
43 0.005665740445885
44 0.0
45 0.0
46 -0.000056264888290
47 0.0
48 0.0
49 -0.002071082437666
50 0.0
51 0.0
52 0.000604165263712
53 -0.000328475225664
54 -0.000328475225664
55 0.000656950451328
56 0.0
57 0.0
58 0.0
59 -0.000182683618049
60 -0.000182683618049
61 0.000365367236098
62 0.0
63 0.0
64 0.0
65 0.000036422334912
66 0.000036422334912
67 -0.000072844669824
68 0.0
69 0.0
70 0.0
71 0.0
72 0.0
73 -0.000018016356295
74 0.0
75 0.0
76 0.000012085739215
77 0.0
78 0.0
79 0.000012085739215
80 0.0
81 0.0
82 0.0
83 -0.000073794657472
84 0.0
85 0.0
86 0.000049502961145
87 0.0
88 0.0
89 0.000049502961145
90 0.0
 Sym=      2.1
 Ene=      -2.6694
 Spin= Alpha
 Occup=    2.000000
1 0.44563580328007
2 -0.000961753493001
3 0.032014425810548
4 0.000341651997482
5 0.0
6 0.0
7 0.046545446621600
8 0.0
9 0.0
10 -0.007454306866310
11 0.0
12 0.0
13 -0.020789988526045
14 -0.002296357684194
15 -0.002296357684194
16 0.004592715368388
17 0.0
18 0.0
19 0.0
20 -0.002266174166761
21 -0.002266174166761
22 0.004532348333522
23 0.0
24 0.0
25 0.0
26 0.0
27 0.0
28 0.001695966741630
29 0.0
30 0.0
31 -0.001137689076559
32 0.0
33 0.0
34 -0.001137689076559
35 0.0
36 0.019195876532220
37 1.00085066952188
38 0.040614377951278
39 -0.23528705577322
40 -0.064463831228168
41 0.0
42 0.0
43 0.49129871978741
44 0.0
45 0.0
46 -0.043343119969254
47 0.0
48 0.0
49 -0.13110603201884
50 0.0
51 0.0
52 0.010438047380031
53 -0.000365035384293
54 -0.000365035384293
55 0.000730070768585
56 0.0
57 0.0
58 0.0
59 -0.000713672997846
60 -0.000713672997846
61 0.001427345995693
62 0.0
63 0.0
64 0.0
65 -0.001298250802764
66 -0.001298250802764
67 0.002596501605529
68 0.0
69 0.0
70 0.0
71 0.0
72 0.0
73 -0.002576874323531
74 0.0
75 0.0
76 0.001728619847067
77 0.0
78 0.0
79 0.001728619847067
80 0.0
81 0.0
82 0.0
83 -0.003487927223139
84 0.0
85 0.0
86 0.002339772711453
87 0.0
88 0.0
89 0.002339772711453
90 0.0
 Sym=      3.1
 Ene=      -2.6109
 Spin= Alpha
 Occup=    2.000000
1 0.89179703817836
2 -0.022097656471799
3 0.080030390625830
4 0.004024260899578
5 0.0
6 0.0
7 0.16385311294432
8 0.0
9 0.0
10 -0.055690549807586
11 0.0
12 0.0
13 -0.069612471295814
14 -0.009603459236348
15 -0.009603459236348
16 0.019206918472696
17 0.0
18 0.0
19 0.0
20 -0.005350722148230
21 -0.005350722148230
22 0.010701444296461
23 0.0
24 0.0
25 0.0
26 0.0
27 0.0
28 0.008235139791239
29 0.0
30 0.0
31 -0.005524299713227
32 0.0
33 0.0
34 -0.005524299713227
35 0.0
36 -0.006258487068205
37 -0.46143551272196
38 -0.019922128315361
39 0.090980678226722
40 -0.10409812688765
41 0.0
42 0.0
43 -0.28873862044778
44 0.0
45 0.0
46 0.021529269184877
47 0.0
48 0.0
49 0.093481603739860
50 0.0
51 0.0
52 0.014746324917482
53 -0.000071450753461
54 -0.000071450753461
55 0.000142901506922
56 0.0
57 0.0
58 0.0
59 -0.002177044452861
60 -0.002177044452861
61 0.004354088905721
62 0.0
63 0.0
64 0.0
65 -0.000949421348315
66 -0.000949421348315
67 0.001898842696630
68 0.0
69 0.0
70 0.0
71 0.0
72 0.0
73 0.002277000509128
74 0.0
75 0.0
76 -0.001527458376964
77 0.0
78 0.0
79 -0.001527458376964
80 0.0
81 0.0
82 0.0
83 -0.003423851695415
84 0.0
85 0.0
86 0.002296789540748
87 0.0
88 0.0
89 0.002296789540748
90 0.0
 Sym=      4.1
 Ene=      -2.2445
 Spin= Alpha
 Occup=    1.999993
1 0.069610039764770
2 -0.096776336092323
3 -0.004929599135283
4 0.047205717239305
5 0.0
6 0.0
7 -0.11524010317222
8 0.0
9 0.0
10 0.035304697816382
11 0.0
12 0.0
13 0.047809616309989
14 0.007106343993170
15 0.007106343993170
16 -0.014212687986340
17 0.0
18 0.0
19 0.0
20 0.003409581725306
21 0.003409581725306
22 -0.006819163450612
23 0.0
24 0.0
25 0.0
26 0.0
27 0.0
28 -0.006204942692698
29 0.0
30 0.0
31 0.004162402097209
32 0.0
33 0.0
34 0.004162402097209
35 0.0
36 -0.013381386048891
37 -0.49569887865902
38 -0.017174416878989
39 0.12557739863172
40 0.034590985416870
41 0.0
42 0.0
43 1.18688196052495
44 0.0
45 0.0
46 -0.087754927356881
47 0.0
48 0.0
49 -0.32073422974552
50 0.0
51 0.0
52 -0.012115886930872
53 0.001117540158795
54 0.001117540158795
55 -0.002235080317590
56 0.0
57 0.0
58 0.0
59 0.005700892614052
60 0.005700892614052
61 -0.011401785228103
62 0.0
63 0.0
64 0.0
65 0.002087899607435
66 0.002087899607435
67 -0.004175799214869
68 0.0
69 0.0
70 0.0
71 0.0
72 0.0
73 -0.007030314798142
74 0.0
75 0.0
76 0.004716078537560
77 0.0
78 0.0
79 0.004716078537560
80 0.0
81 0.0
82 0.0
83 0.002060857445404
84 0.0
85 0.0
86 -0.001382465201958
87 0.0
88 0.0
89 -0.001382465201958
90 0.0
 Sym=      5.1
 Ene=      -0.3629
 Spin= Alpha
 Occup=    1.996927
1 0.039804030518578
2 0.89215625645414
3 -0.22531142511906
4 -0.32510305730325
5 0.0
6 0.0
7 0.60108342328528
8 0.0
9 0.0
10 -0.23974779957692
11 0.0
12 0.0
13 -0.20364857938631
14 -0.015355223316756
15 -0.015355223316756
16 0.030710446633513
17 0.0
18 0.0
19 0.0
20 -0.018054477603678
21 -0.018054477603678
22 0.036108955207356
23 0.0
24 0.0
25 0.0
26 0.0
27 0.0
28 0.015665217075287
29 0.0
30 0.0
31 -0.010508547078790
32 0.0
33 0.0
34 -0.010508547078790
35 0.0
36 -0.066461654421409
37 -0.56283315441732
38 -0.029191434264153
39 0.007077501334765
40 0.77233791692292
41 0.0
42 0.0
43 0.11067947010825
44 0.0
45 0.0
46 0.002236830928064
47 0.0
48 0.0
49 -0.055588749595720
50 0.0
51 0.0
52 -0.094093138092527
53 -0.000422402984680
54 -0.000422402984680
55 0.000844805969360
56 0.0
57 0.0
58 0.0
59 0.004578562866811
60 0.004578562866811
61 -0.009157125733622
62 0.0
63 0.0
64 0.0
65 0.014309748883252
66 0.014309748883252
67 -0.028619497766504
68 0.0
69 0.0
70 0.0
71 0.0
72 0.0
73 -0.001786081038877
74 0.0
75 0.0
76 0.001198139584876
77 0.0
78 0.0
79 0.001198139584876
80 0.0
81 0.0
82 0.0
83 0.008510576344678
84 0.0
85 0.0
86 -0.005709068170321
87 0.0
88 0.0
89 -0.005709068170321
90 0.0
 Sym=      6.1
 Ene=      -0.1339
 Spin= Alpha
 Occup=    1.495970
1 -0.024737013788881
2 -1.01604369156466
3 0.43835018317691
4 0.78610727831114
5 0.0
6 0.0
7 -0.25621019162566
8 0.0
9 0.0
10 0.29152476023861
11 0.0
12 0.0
13 0.22111166027081
14 -0.013820714131524
15 -0.013820714131524
16 0.027641428263048
17 0.0
18 0.0
19 0.0
20 -0.080395991202251
21 -0.080395991202251
22 0.16079198240450
23 0.0
24 0.0
25 0.0
26 0.0
27 0.0
28 0.053742443823492
29 0.0
30 0.0
31 -0.036051527299887
32 0.0
33 0.0
34 -0.036051527299887
35 0.0
36 -0.010107598657294
37 -0.094733580630583
38 -0.006768859929252
39 -0.022907395318222
40 -0.036192737209324
41 0.0
42 0.0
43 -0.33067056134291
44 0.0
45 0.0
46 -0.004779191757529
47 0.0
48 0.0
49 0.32162807649188
50 0.0
51 0.0
52 0.71908483221314
53 -0.000188638068785
54 -0.000188638068785
55 0.000377276137570
56 0.0
57 0.0
58 0.0
59 -0.003000015766013
60 -0.003000015766013
61 0.006000031532025
62 0.0
63 0.0
64 0.0
65 0.005842828084048
66 0.005842828084048
67 -0.011685656168096
68 0.0
69 0.0
70 0.0
71 0.0
72 0.0
73 0.002999142900082
74 0.0
75 0.0
76 -0.002011886219646
77 0.0
78 0.0
79 -0.002011886219646
80 0.0
81 0.0
82 0.0
83 -0.012183859180933
84 0.0
85 0.0
86 0.008173181207055
87 0.0
88 0.0
89 0.008173181207055
90 0.0
 Sym=      7.1
 Ene=       0.0022
 Spin= Alpha
 Occup=    0.507110
1 0.022243144308516
2 0.11142966263727
3 -0.085639015002052
4 -1.08149899234473
5 0.0
6 0.0
7 1.31642811621868
8 0.0
9 0.0
10 -0.50016636238803
11 0.0
12 0.0
13 -0.42323880078134
14 -0.024951995769817
15 -0.024951995769817
16 0.049903991539633
17 0.0
18 0.0
19 0.0
20 0.075590201119457
21 0.075590201119457
22 -0.15118040223891
23 0.0
24 0.0
25 0.0
26 0.0
27 0.0
28 -0.006649931585889
29 0.0
30 0.0
31 0.004460909721531
32 0.0
33 0.0
34 0.004460909721531
35 0.0
36 -0.027674792106072
37 -0.24040522259915
38 -0.016412370598876
39 -0.058239891046146
40 0.68274943858099
41 0.0
42 0.0
43 0.15148958433168
44 0.0
45 0.0
46 -0.004865678632428
47 0.0
48 0.0
49 -0.085278969707946
50 0.0
51 0.0
52 -0.29533969339320
53 -0.000536581926731
54 -0.000536581926731
55 0.001073163853461
56 0.0
57 0.0
58 0.0
59 -0.000527653040823
60 -0.000527653040823
61 0.001055306081646
62 0.0
63 0.0
64 0.0
65 0.008962258765143
66 0.008962258765143
67 -0.017924517530286
68 0.0
69 0.0
70 0.0
71 0.0
72 0.0
73 -0.001528443788946
74 0.0
75 0.0
76 0.001025311263561
77 0.0
78 0.0
79 0.001025311263561
80 0.0
81 0.0
82 0.0
83 0.004710535100456
84 0.0
85 0.0
86 -0.003159923008506
87 0.0
88 0.0
89 -0.003159923008506
90 0.0
 Sym=      1.2
 Ene=      -1.2299
 Spin= Alpha
 Occup=   -0.000000
1 0.0
2 0.0
3 0.0
4 0.0
5 -0.005547750164436
6 0.0
7 0.0
8 -0.002323747056927
9 0.0
10 0.0
11 0.005129740066811
12 0.0
13 0.0
14 0.0
15 0.0
16 0.0
17 0.0
18 -0.005635822095343
19 0.0
20 0.0
21 0.0
22 0.0
23 0.0
24 -0.003128322151574
25 0.0
26 0.003385308851141
27 0.0
28 0.0
29 0.001513956143197
30 0.0
31 0.0
32 -0.006055824572787
33 0.0
34 0.0
35 0.0
36 0.0
37 0.0
38 0.0
39 0.0
40 0.0
41 1.15832653923679
42 0.0
43 0.0
44 -0.017332330813505
45 0.0
46 0.0
47 -0.20313587228371
48 0.0
49 0.0
50 -0.000720884606410
51 0.0
52 0.0
53 0.0
54 0.0
55 0.0
56 0.0
57 -0.001318006811492
58 0.0
59 0.0
60 0.0
61 0.0
62 0.0
63 -0.006363945351949
64 0.0
65 0.0
66 0.0
67 0.0
68 0.0
69 -0.012512101797322
70 0.0
71 0.003944346926230
72 0.0
73 0.0
74 0.001763965570778
75 0.0
76 0.0
77 -0.007055862283114
78 0.0
79 0.0
80 0.0
81 -0.000412194958757
82 0.0
83 0.0
84 -0.000184339189553
85 0.0
86 0.0
87 0.000737356758211
88 0.0
89 0.0
90 0.0
 Sym=      1.3
 Ene=      -1.2299
 Spin= Alpha
 Occup=   -0.000000
1 0.0
2 0.0
3 0.0
4 0.0
5 0.0
6 -0.005547750164430
7 0.0
8 0.0
9 -0.002323747056934
10 0.0
11 0.0
12 0.005129740066809
13 0.0
14 0.0
15 0.0
16 0.0
17 0.0
18 0.0
19 -0.005635822095343
20 0.0
21 0.0
22 0.0
23 0.0
24 0.0
25 -0.003128322151577
26 0.0
27 0.003385308851142
28 0.0
29 0.0
30 0.001513956143197
31 0.0
32 0.0
33 -0.006055824572788
34 0.0
35 0.0
36 0.0
37 0.0
38 0.0
39 0.0
40 0.0
41 0.0
42 1.15832653923679
43 0.0
44 0.0
45 -0.017332330813507
46 0.0
47 0.0
48 -0.20313587228371
49 0.0
50 0.0
51 -0.000720884606406
52 0.0
53 0.0
54 0.0
55 0.0
56 0.0
57 0.0
58 -0.001318006811492
59 0.0
60 0.0
61 0.0
62 0.0
63 0.0
64 -0.006363945351948
65 0.0
66 0.0
67 0.0
68 0.0
69 0.0
70 -0.012512101797322
71 0.0
72 0.003944346926230
73 0.0
74 0.0
75 0.001763965570778
76 0.0
77 0.0
78 -0.007055862283114
79 0.0
80 0.0
81 0.0
82 -0.000412194958757
83 0.0
84 0.0
85 -0.000184339189553
86 0.0
87 0.0
88 0.000737356758211
89 0.0
90 0.0
 Sym=      2.3
 Ene=      -0.0407
 Spin= Alpha
 Occup=   -0.000000
1 0.0
2 0.0
3 0.0
4 0.0
5 0.0
6 0.93308198065819
7 0.0
8 0.0
9 -0.14588779382773
10 0.0
11 0.0
12 -0.11512360038883
13 0.0
14 0.0
15 0.0
16 0.0
17 0.0
18 0.0
19 0.051538710941314
20 0.0
21 0.0
22 0.0
23 0.0
24 0.0
25 0.13679468287878
26 0.0
27 -0.022543945883557
28 0.0
29 0.0
30 -0.010081959095342
31 0.0
32 0.0
33 0.040327836381369
34 0.0
35 0.0
36 0.0
37 0.0
38 0.0
39 0.0
40 0.0
41 0.0
42 -0.31276894063346
43 0.0
44 0.0
45 -0.011525221593379
46 0.0
47 0.0
48 0.19905605984693
49 0.0
50 0.0
51 0.25962202508553
52 0.0
53 0.0
54 0.0
55 0.0
56 0.0
57 0.0
58 -0.002858314789917
59 0.0
60 0.0
61 0.0
62 0.0
63 0.0
64 -0.012778766897015
65 0.0
66 0.0
67 0.0
68 0.0
69 0.0
70 -0.047613186983495
71 0.0
72 -0.000873071935459
73 0.0
74 0.0
75 -0.000390449639387
76 0.0
77 0.0
78 0.001561798557546
79 0.0
80 0.0
81 0.0
82 -0.000777807904680
83 0.0
84 0.0
85 -0.000347846269660
86 0.0
87 0.0
88 0.001391385078641
89 0.0
90 0.0
 Sym=      2.2
 Ene=      -0.0407
 Spin= Alpha
 Occup=   -0.000000
1 0.0
2 0.0
3 0.0
4 0.0
5 0.93308198065819
6 0.0
7 0.0
8 -0.14588779382773
9 0.0
10 0.0
11 -0.11512360038881
12 0.0
13 0.0
14 0.0
15 0.0
16 0.0
17 0.0
18 0.051538710941315
19 0.0
20 0.0
21 0.0
22 0.0
23 0.0
24 0.13679468287877
25 0.0
26 -0.022543945883558
27 0.0
28 0.0
29 -0.010081959095343
30 0.0
31 0.0
32 0.040327836381370
33 0.0
34 0.0
35 0.0
36 0.0
37 0.0
38 0.0
39 0.0
40 0.0
41 -0.31276894063345
42 0.0
43 0.0
44 -0.011525221593379
45 0.0
46 0.0
47 0.19905605984693
48 0.0
49 0.0
50 0.25962202508553
51 0.0
52 0.0
53 0.0
54 0.0
55 0.0
56 0.0
57 -0.002858314789917
58 0.0
59 0.0
60 0.0
61 0.0
62 0.0
63 -0.012778766897015
64 0.0
65 0.0
66 0.0
67 0.0
68 0.0
69 -0.047613186983494
70 0.0
71 -0.000873071935459
72 0.0
73 0.0
74 -0.000390449639387
75 0.0
76 0.0
77 0.001561798557546
78 0.0
79 0.0
80 0.0
81 -0.000777807904680
82 0.0
83 0.0
84 -0.000347846269660
85 0.0
86 0.0
87 0.001391385078642
88 0.0
89 0.0
90 0.0
 Sym=      3.2
 Ene=       0.0589
 Spin= Alpha
 Occup=   -0.000000
1 0.0
2 0.0
3 0.0
4 0.0
5 -0.45253128338901
6 0.0
7 0.0
8 -0.60262803456782
9 0.0
10 0.0
11 1.54722801529129
12 0.0
13 0.0
14 0.0
15 0.0
16 0.0
17 0.0
18 -0.057727797951650
19 0.0
20 0.0
21 0.0
22 0.0
23 0.0
24 -0.13736649378200
25 0.0
26 0.025128704371399
27 0.0
28 0.0
29 0.011237898232189
30 0.0
31 0.0
32 -0.044951592928755
33 0.0
34 0.0
35 0.0
36 0.0
37 0.0
38 0.0
39 0.0
40 0.0
41 0.16006767831645
42 0.0
43 0.0
44 -0.001035108076337
45 0.0
46 0.0
47 -0.074074397731537
48 0.0
49 0.0
50 -0.070049552372148
51 0.0
52 0.0
53 0.0
54 0.0
55 0.0
56 0.0
57 0.002811782169240
58 0.0
59 0.0
60 0.0
61 0.0
62 0.0
63 0.014464944238080
64 0.0
65 0.0
66 0.0
67 0.0
68 0.0
69 0.041881829960895
70 0.0
71 0.000197098479942
72 0.0
73 0.0
74 0.000088145119882
75 0.0
76 0.0
77 -0.000352580479530
78 0.0
79 0.0
80 0.0
81 0.001743615561985
82 0.0
83 0.0
84 0.000779768584645
85 0.0
86 0.0
87 -0.003119074338581
88 0.0
89 0.0
90 0.0
 Sym=      3.3
 Ene=       0.0589
 Spin= Alpha
 Occup=   -0.000000
1 0.0
2 0.0
3 0.0
4 0.0
5 0.0
6 -0.45253128338899
7 0.0
8 0.0
9 -0.60262803456782
10 0.0
11 0.0
12 1.54722801529128
13 0.0
14 0.0
15 0.0
16 0.0
17 0.0
18 0.0
19 -0.057727797951649
20 0.0
21 0.0
22 0.0
23 0.0
24 0.0
25 -0.13736649378200
26 0.0
27 0.025128704371398
28 0.0
29 0.0
30 0.011237898232188
31 0.0
32 0.0
33 -0.044951592928754
34 0.0
35 0.0
36 0.0
37 0.0
38 0.0
39 0.0
40 0.0
41 0.0
42 0.16006767831644
43 0.0
44 0.0
45 -0.001035108076337
46 0.0
47 0.0
48 -0.074074397731534
49 0.0
50 0.0
51 -0.070049552372153
52 0.0
53 0.0
54 0.0
55 0.0
56 0.0
57 0.0
58 0.002811782169239
59 0.0
60 0.0
61 0.0
62 0.0
63 0.0
64 0.014464944238079
65 0.0
66 0.0