[Molden Format]
[Molpro variables]
_NUMVAR=  894.0000000000000    
_AVOGAD= 0.6022136736000000E+24
_BOLTZ= 0.1380658000000000E-22
_CLIGHT=  29979245800.00000    
_EV= 0.3674932379085202E-01
_ENULL= 0.8854187817000000E-11
_KJOULE= 0.3808798324128737E-03
_KJOULE/MOL= 0.3808798324128737E-03
_CM= 0.4556335267302901E-05
_CM-1= 0.4556335267302901E-05
_DEB2SI= 0.3335641000000000E-29
_AMU2AU=  1822.888390000000    
_KCAL= 0.1593601117815568E-02
_KCAL/MOL= 0.1593601117815568E-02
_KELVIN= 0.3166811411060229E-05
_JOULE= 0.4359748200000000E-17
_HERTZ= 0.1519829846004524E-15
_HZ= 0.1519829846004524E-15
_JPCAL=  4.184000000000000    
_PLANCK= 0.6626075540000000E-33
_TOA= 0.5291772109200000    
_TOANG= 0.5291772109200000    
_TORAD= 0.1745329251994330E-01
_TOCM=  219474.6306700000    
_TODEBYE=  2.541580000000000    
_TOE= 0.4803242000000000E-09
_TOEV=  27.21138505000000    
_TOHERTZ=  6579683920729000.    
_TOHZ=  6579683920729000.    
_TOK=  315775.0400000000    
_TOKCAL=  627.5096000000000    
_TOKELVIN=  315775.0400000000    
_TOKJ=  2625.500000000000    
_TOKJOULE=  2625.500000000000    
_TOKG= 0.1660565586000000E-26
_ANG=  1.889726124565062    
_ANGSTROM=  1.889726124565062    
_RPAREF=  0.000000000000000    
_RPADISS=  0.000000000000000    
_IGNORE_UNDEF=  2.000000000000000    
_STRICTCHECK=  0.000000000000000    
_SEW_ONEEL=  0.000000000000000    
_CPPDONE=FALSE
_DKROLL_DONE=  0.000000000000000    
_FOCKDONE=TRUE
_GRADONE=FALSE
_HESSDONE=FALSE
_INTDONE=TRUE
_SCFDONE=TRUE
_MODUL_BLOCK=TRUE
_MODUL_CUDA=FALSE
_MODUL_SLATER=FALSE
_MODUL_MRCC=FALSE
_MODUL_NBO6=FALSE
_MODUL_NECI=TRUE
_MODUL_AIMS=TRUE
_MRCC_EXEC=
_FITC_AO_SAVED=FALSE
_FITC_MO_SAVED=FALSE
_SHARED_FS=TRUE
_LSTYP=SEWARD
_INTYP=INTS
_GEOMTYP=ZMAT
_GRADTYP=ALASKA
_DIRECT=FALSE
_DKHO= -1.000000000000000    
_SYNCM=  0.000000000000000    
_BASIS=F=AVQZ,LI=VQZ
_ZUNIT=ANG
_ZORIENT=  0.000000000000000    
_NELEC=  12.00000000000000    
!SPIN=  0.000000000000000    
_QSDSTEP=  0.000000000000000    
_QSDIRC=  0.000000000000000    
_PROGRAM=MULTI
_CPUSTEP=  29.65000000000000    
_SYSSTEP=  1.530000000000000    
_WALLSTEP=  31.26000000000000    
!DFSCF=  0.000000000000000    
!SCSGRD=  0.000000000000000    
_BASINP=  610.0000000000000    
_CPUTOT=  33.89000000000000    
_DFTEXFAC=  1.000000000000000    
_DMX= 0.2479525196573242E-16
_DMY=-0.1517579245297005E-15
_DMZ= -2.641027108375926    
_DMX_SCF=-0.1414367846336189E-14
_DMY_SCF=-0.2106634804002767E-14
_DMZ_SCF= -2.568379286694471    
_EHOMO=-0.4743366850929395    
_ELUMO=-0.7236824401681104E-02
_EIGS= -26.11049336075950    
_ENERGY= -107.1085574132989    
_ENERGY_METHOD=MULTI
_ENERGY_BASIS=F=AVQZ,LI=VQZ
_GEOMETRY_METHOD=
_GEOMETRY_BASIS=
_ENUC=  9.042901705594938    
_EPS1= -26.41201868340701    
_GRADEXFAC=  9999.000000000000    
_GRADMETHOD=TRUE
_NMRMETHOD=  0.000000000000000    
_NMRMAGNET=  0.000000000000000    
!GRID_FREEZE= -1.000000000000000    
_ITERATIONS=  5.000000000000000    
_LASTNELEC=  6.000000000000000    
_LASTSPIN=  0.000000000000000    
_LASTSYM=  1.000000000000000    
_MPP_PROG=  0.000000000000000    
_MSNSTATES=  0.000000000000000    
_RS2PHASE=  0.000000000000000    
_NPROC_MPP=  1.000000000000000    
_NPROC_MPPX=  1.000000000000000    
_NPROC_SMP=  1.000000000000000    
_NUMSTEP=  0.000000000000000    
_ORBITAL=  2140.200000000000    
_PI=  3.141592653589793    
!MCACT=  11.00000000000000    
!MCCLOSED=  3.000000000000000    
!MCFREEZE=  0.000000000000000    
!MCMS2=  0.000000000000000    
!MCNEL=  6.000000000000000    
!MCNSTSYM=  1.000000000000000    
!MCSTATE=  4.000000000000000    
!MCSYM=  1.000000000000000    
!MCWEIGHT= 0.2500000000000000    
_SEIG_MIN= 0.1892281771039632E-03
_SEWPROP=TRUE
_STATUS=  1.000000000000000    
_SYSTOT=  2.030000000000000    
_VERSION=  2015001.000000000    
_WALLTOT=  36.05000000000000    
_DATE=11-Jul-23
_LASTORB=MCSCF
_MACHINE= 64 bit serial version
_OUTPUT=/scratch/5131516.1.multiway.q/lif-eq-z-nosym.xml
_PGROUP=C1
_TIME=23:57:08
_LIBMOL=/home/lambda/ajmk/chem1721/GroupPrograms/Molpro2015/molpro2015/lib/
_VIGRDC=  0.000000000000000    
!VIBCNT=  0.000000000000000    
!RGHFCNT=  0.000000000000000    
!SURFREC=  0.000000000000000    
!ROTREC=  0.000000000000000    
!POLYREC=  0.000000000000000    
!DIPREC=  0.000000000000000    
!DIP4DREC=  0.000000000000000    
!DIPROT=  0.000000000000000    
!DIP4DROT=  0.000000000000000    
!PTREC=  0.000000000000000    
!PT4DREC=  0.000000000000000    
!VSCFREC=  0.000000000000000    
!VCIREC=  0.000000000000000    
!PVCIREC=  0.000000000000000    
!VMP2REC=  0.000000000000000    
!VMCSCFREC=  0.000000000000000    
!VMRCIREC=  0.000000000000000    
!VIBSTATEREC=  0.000000000000000    
!VIBSTATECNT=  0.000000000000000    
!VIBINFO=  0.000000000000000    
!GAREC=  0.000000000000000    
!SCFORB=  21002.00000000000    
!MCORB=  21402.00000000000    
!NEWMOL= -1.000000000000000    
!NEWSYM= -1.000000000000000    
_SLFILES=slscratch
_NGSSTO=  9.000000000000000    
_SIN=SIN
_COS=COS
_TAN=TAN
_ACOS=ACOS
_ASIN=ASIN
_ATAN=ATAN
_COSH=COSH
_SINH=SINH
_TANH=TANH
_ABS=ABS
_MOD=MOD
_ERF=ERF
_REFC=REFC
_ERFC=ERFC
_HYPOT=HYPOT
_J0=J0
_J1=J1
_JN=JN
_GAMMA=GAMMA
_LGAMMA=LGAMMA
_Y0=Y0
_Y1=Y1
_YN=YN
_EXP=EXP
_LOG=LOG
_LOG10=LOG10
_SQRT=SQRT
_INT=INT
_NINT=NINT
_MAX=MAX
_MIN=MIN
_COSMO=  0.000000000000000    
_COSMOIT=  0.000000000000000    
_COSMOES=  0.000000000000000    
_COSMOEDS=  0.000000000000000    
_COSMOEC=  0.000000000000000    
_COSMOEDCORR=  0.000000000000000    
_FEPSI=  1.000000000000000    
_SL_IsMM=  0.000000000000000    
_SL_NSYM=  1.000000000000000    
_SL_System_BitSw=  0.000000000000000    
_SL_Unique_atoms=  0.000000000000000    
_SL_GRAD=  0.000000000000000    
_SL_MAXUPD_Hess=  5.000000000000000    
_SL_N_PRINT_COD=  5.000000000000000    
_SL_PRINT_CODES=  0.000000000000000    
_SL_BasType=  0.000000000000000    
_SL_Energy_Pred=  0.000000000000000    
_SL_New_Coords=  0.000000000000000    
_SL_Total_Nuclea=  0.000000000000000    
_SL_Highest_Mltp=  0.000000000000000    
_SL_Ref_Geom=  0.000000000000000    
_SL_Symmetry_ope=  1.000000000000000    
_SL_agrad=  0.000000000000000    
_SL_GrdMax=  0.000000000000000    
_SL_GrdNorm=  0.000000000000000    
_SL_GrdRMS=  0.000000000000000    
_SL_Hss_Q=  0.000000000000000    
_SL_Hss_X=  0.000000000000000    
_SL_BMxOld=  0.000000000000000    
_SL_KtB=  0.000000000000000    
_SL_TROld=  0.000000000000000    
_SL_No_of_Intern=  0.000000000000000    
_SL_Hess=  0.000000000000000    
_SL_K=  0.000000000000000    
!LATTICE= -1.000000000000000    
!NEWLATTICE=  0.000000000000000    
!LATGRAD_VAR=FALSE
!SEW_LATTICE=  1.000000000000000    
!LOCAL=  0.000000000000000    
!SAVEDOM= -1.000000000000000    
!RESTDOM= -1.000000000000000    
!SAVEDOM_HF= -1.000000000000000    
!RESTDOM_HF= -1.000000000000000    
!HESSREC=  0.000000000000000    
!FREQREC=  0.000000000000000    
!NMODREC=  0.000000000000000    
!GTASKS=  0.000000000000000    
!HTASKS=  0.000000000000000    
!SAVEDOM_EOM= -1.000000000000000    
!RESTDOM_EOM= -1.000000000000000    
!GRADSTATE= -1.000000000000000    
!THRCHG= 0.1000000000000000    
!DEBUG= -1.000000000000000    
!CFIT_CPHF=  0.000000000000000    
!RDOMAUX_CPHF=  3.000000000000000    
!THRAO_CPHF= 0.1000000000000000E-09
!THRMO_CPHF= 0.1000000000000000E-08
!THROV_CPHF= 0.1000000000000000E-11
!THRSW_CPHF= 0.1000000000000000E-09
!THRPROD_CPHF= 0.1000000000000000E-08
!THRAOPR_CPHF= 0.1000000000000000E-11
!CFIT_SCFGRD=  0.000000000000000    
!RDOMAUX_SCFGRD=  5.000000000000000    
!THRAO_SCFGRD= 0.1000000000000000E-09
!THRMO_SCFGRD= 0.1000000000000000E-08
!THROV_SCFGRD= 0.1000000000000000E-11
!THRSW_SCFGRD= 0.1000000000000000E-09
!THRPROD_SCFGRD= 0.1000000000000000E-08
!THRAOPR_SCFGRD= 0.1000000000000000E-11
!LOCFIT_SCF=  0.000000000000000    
!LOCFIT_MP2= -1.000000000000000    
_RIDOM=  0.000000000000000    
!CC2_METHOD=  0.000000000000000    
_BASIS2006=FALSE
_SVDDEL= -1.000000000000000    
_SVDDELA= -1.000000000000000    
_SVDDELP= -1.000000000000000    
_SVDDELF= -1.000000000000000    
_SVDDELS= -1.000000000000000    
_SVDDEL_ABS= -1.000000000000000    
_SVDDELA_ABS= -1.000000000000000    
_SVDDELP_ABS= -1.000000000000000    
_SVDDELF_ABS= -1.000000000000000    
_SVDDELS_ABS= -1.000000000000000    
_MAXBASIS=  0.000000000000000    
!OPT_CONICAL=  0.000000000000000    
!CLEARSP_JGRID=  0.000000000000000    
_GRDHYBR=  0.000000000000000    
_STATEGRAD=  1.000000000000000    
_4EXT_NDISKS=  1.000000000000000    
!ZMP=  0.000000000000000    
_MAXIT_ZMP=  500.0000000000000    
_MAXDIS_ZMP=  100.0000000000000    
_ACCU_ZMP=  14.00000000000000    
_SHIFTA_ZMP= -100.0000000000000    
!EMBEDFLAG=  1.000000000000000    
!EMBED=FALSE
!EMBED_F12=FALSE
!EMBEDNUC=  0.000000000000000    
_EMBEDENERGY=  0.000000000000000    
_KSPACETIME=  0.000000000000000    
_RSPACETIME=  0.000000000000000    
!EMBED_DFC=FALSE
!NUM_VOIDS=  0.000000000000000    
_IBODY=  0.000000000000000    
_EMBE_TOTAL=  0.000000000000000    
_EMBE_HF=  0.000000000000000    
_EMBE_CORR=  0.000000000000000    
!EMBED_PROJ=FALSE
!EMBED_TRUNC=  0.000000000000000    
!EMB_PROJ_ZMU=  1000000.000000000    
!CORRECTION=  0.000000000000000    
!CORRECTION_HF=  0.000000000000000    
!EMBED_ENERGY=  0.000000000000000    
!EMBED_NAXC=FALSE
!EMBED_AORB=  0.000000000000000    
!EMBED_NACORR=  0.000000000000000    
!EMBED_MP2=FALSE
!EMBED_TRUNC_PERTURBATION=FALSE
!EMBED_FROZEN=  0.000000000000000    
_CHANGE_BASIS=FALSE
_RESTORE_BASIS=FALSE
_FIX_EMBED_GUESS=FALSE
!EDFT=  0.000000000000000    
_IFASTLATGRAD=  0.000000000000000    
_SINDEX=  0.000000000000000    
_AVDOM_OSV=  0.000000000000000    
_AVDOM_PNO=  0.000000000000000    
_AVDOM_PAO=  0.000000000000000    
_AVDOM_LMO=  0.000000000000000    
_CC2OSV_FLAG=  0.000000000000000    
_TMADC2_FLAG=FALSE
_PROPADC2_FLAG=FALSE
_LEN_VirQ=  0.000000000000000    
_GRDCC2LR_FLAG=FALSE
_GRDADC2_FLAG=FALSE
_DMX_CC= 0.1116353365336007E-20
_DMY_CC= 0.1116353365336008E-20
_DMZ_CC= -2.893557352826305    
_DMX_NUC=  0.000000000000000    
_DMY_NUC=  0.000000000000000    
_DMZ_NUC=  8.957301830435998    
GEOMTYP=XYZ
GX1=  0.000000000000000    
GY1=  0.000000000000000    
GZ1=-0.7899999999999999    
GX2=  0.000000000000000    
GY2=  0.000000000000000    
GZ2= 0.7899999999999999    
_TRDMX=-0.1249500698579680E-06
_TRDMY=-0.2898000616922848    
_TRDMZ= 0.1454041521844389E-13
[Atoms] Angs
LI    1    3         0.0000000000        0.0000000000       -0.7900000000
F     2    9         0.0000000000        0.0000000000        0.7900000000
[GTO]
   1 0
 s   12  1.00
  0.6601000000D+04  0.1169999349D-03
  0.9897000000D+03  0.9109994932D-03
  0.2257000000D+03  0.4727997370D-02
  0.6429000000D+02  0.1919698932D-01
  0.2118000000D+02  0.6304696492D-01
  0.7724000000D+01  0.1632079092D+00
  0.3003000000D+01  0.3148268248D+00
  0.1212000000D+01  0.3939357808D+00
  0.4930000000D+00  0.1969178904D+00
  0.9515000000D-01  0.9996994438D-02
  0.4791000000D-01 -0.5401996995D-02
  0.2220000000D-01  0.1703999052D-02
 s   12  1.00
  0.6601000000D+04 -0.1799999437D-04
  0.9897000000D+03 -0.1419999556D-03
  0.2257000000D+03 -0.7409997681D-03
  0.6429000000D+02 -0.3019999055D-02
  0.2118000000D+02 -0.1012299683D-01
  0.7724000000D+01 -0.2709399152D-01
  0.3003000000D+01 -0.5735898205D-01
  0.1212000000D+01 -0.9389497062D-01
  0.4930000000D+00 -0.1210909621D+00
  0.9515000000D-01  0.2766079135D+00
  0.4791000000D-01  0.5495478281D+00
  0.2220000000D-01  0.2773849132D+00
 s   12  1.00
  0.6601000000D+04  0.0000000000D+00
  0.9897000000D+03  0.0000000000D+00
  0.2257000000D+03  0.0000000000D+00
  0.6429000000D+02  0.0000000000D+00
  0.2118000000D+02  0.0000000000D+00
  0.7724000000D+01  0.0000000000D+00
  0.3003000000D+01  0.0000000000D+00
  0.1212000000D+01  0.0000000000D+00
  0.4930000000D+00  0.0000000000D+00
  0.9515000000D-01  0.1000000000D+01
  0.4791000000D-01  0.0000000000D+00
  0.2220000000D-01  0.0000000000D+00
 s   12  1.00
  0.6601000000D+04  0.0000000000D+00
  0.9897000000D+03  0.0000000000D+00
  0.2257000000D+03  0.0000000000D+00
  0.6429000000D+02  0.0000000000D+00
  0.2118000000D+02  0.0000000000D+00
  0.7724000000D+01  0.0000000000D+00
  0.3003000000D+01  0.0000000000D+00
  0.1212000000D+01  0.0000000000D+00
  0.4930000000D+00  0.0000000000D+00
  0.9515000000D-01  0.0000000000D+00
  0.4791000000D-01  0.1000000000D+01
  0.2220000000D-01  0.0000000000D+00
 s   12  1.00
  0.6601000000D+04  0.0000000000D+00
  0.9897000000D+03  0.0000000000D+00
  0.2257000000D+03  0.0000000000D+00
  0.6429000000D+02  0.0000000000D+00
  0.2118000000D+02  0.0000000000D+00
  0.7724000000D+01  0.0000000000D+00
  0.3003000000D+01  0.0000000000D+00
  0.1212000000D+01  0.0000000000D+00
  0.4930000000D+00  0.0000000000D+00
  0.9515000000D-01  0.0000000000D+00
  0.4791000000D-01  0.0000000000D+00
  0.2220000000D-01  0.1000000000D+01
 p    6  1.00
  0.6250000000D+01  0.3388000602D-02
  0.1370000000D+01  0.1931600343D-01
  0.3672000000D+00  0.7910401407D-01
  0.1192000000D+00  0.2740950487D+00
  0.4474000000D-01  0.5194880924D+00
  0.1795000000D-01  0.2844230506D+00
 p    6  1.00
  0.6250000000D+01  0.0000000000D+00
  0.1370000000D+01  0.0000000000D+00
  0.3672000000D+00  0.0000000000D+00
  0.1192000000D+00  0.1000000000D+01
  0.4474000000D-01  0.0000000000D+00
  0.1795000000D-01  0.0000000000D+00
 p    6  1.00
  0.6250000000D+01  0.0000000000D+00
  0.1370000000D+01  0.0000000000D+00
  0.3672000000D+00  0.0000000000D+00
  0.1192000000D+00  0.0000000000D+00
  0.4474000000D-01  0.1000000000D+01
  0.1795000000D-01  0.0000000000D+00
 p    6  1.00
  0.6250000000D+01  0.0000000000D+00
  0.1370000000D+01  0.0000000000D+00
  0.3672000000D+00  0.0000000000D+00
  0.1192000000D+00  0.0000000000D+00
  0.4474000000D-01  0.0000000000D+00
  0.1795000000D-01  0.1000000000D+01
 d    1  1.00
  0.3352000000D+00  0.1000000000D+01
 d    1  1.00
  0.1482000000D+00  0.1000000000D+01
 d    1  1.00
  0.6560000000D-01  0.1000000000D+01
 f    1  1.00
  0.2280000000D+00  0.1000000000D+01
 f    1  1.00
  0.1135000000D+00  0.1000000000D+01
 g    1  1.00
  0.2319000000D+00  0.1000000000D+01
  
   2 0
 s   12  1.00
  0.7453000000D+05  0.9500010373D-04
  0.1117000000D+05  0.7380008058D-03
  0.2543000000D+04  0.3858004212D-02
  0.7210000000D+03  0.1592601739D-01
  0.2359000000D+03  0.5428905928D-01
  0.8560000000D+02  0.1495131632D+00
  0.3355000000D+02  0.3082523366D+00
  0.1393000000D+02  0.3948534311D+00
  0.5915000000D+01  0.2110312304D+00
  0.1843000000D+01  0.1715101873D-01
  0.7124000000D+00 -0.2015002200D-02
  0.2637000000D+00  0.8690009488D-03
 s   12  1.00
  0.7453000000D+05 -0.2199999390D-04
  0.1117000000D+05 -0.1719999523D-03
  0.2543000000D+04 -0.8909997530D-03
  0.7210000000D+03 -0.3747998961D-02
  0.2359000000D+03 -0.1286199643D-01
  0.8560000000D+02 -0.3806098945D-01
  0.3355000000D+02 -0.8623897609D-01
  0.1393000000D+02 -0.1558649568D+00
  0.5915000000D+01 -0.1109139693D+00
  0.1843000000D+01  0.2987609172D+00
  0.7124000000D+00  0.5850128378D+00
  0.2637000000D+00  0.2711589248D+00
 s   12  1.00
  0.7453000000D+05  0.0000000000D+00
  0.1117000000D+05  0.0000000000D+00
  0.2543000000D+04  0.0000000000D+00
  0.7210000000D+03  0.0000000000D+00
  0.2359000000D+03  0.0000000000D+00
  0.8560000000D+02  0.0000000000D+00
  0.3355000000D+02  0.0000000000D+00
  0.1393000000D+02  0.0000000000D+00
  0.5915000000D+01  0.0000000000D+00
  0.1843000000D+01  0.1000000000D+01
  0.7124000000D+00  0.0000000000D+00
  0.2637000000D+00  0.0000000000D+00
 s   12  1.00
  0.7453000000D+05  0.0000000000D+00
  0.1117000000D+05  0.0000000000D+00
  0.2543000000D+04  0.0000000000D+00
  0.7210000000D+03  0.0000000000D+00
  0.2359000000D+03  0.0000000000D+00
  0.8560000000D+02  0.0000000000D+00
  0.3355000000D+02  0.0000000000D+00
  0.1393000000D+02  0.0000000000D+00
  0.5915000000D+01  0.0000000000D+00
  0.1843000000D+01  0.0000000000D+00
  0.7124000000D+00  0.1000000000D+01
  0.2637000000D+00  0.0000000000D+00
 s   12  1.00
  0.7453000000D+05  0.0000000000D+00
  0.1117000000D+05  0.0000000000D+00
  0.2543000000D+04  0.0000000000D+00
  0.7210000000D+03  0.0000000000D+00
  0.2359000000D+03  0.0000000000D+00
  0.8560000000D+02  0.0000000000D+00
  0.3355000000D+02  0.0000000000D+00
  0.1393000000D+02  0.0000000000D+00
  0.5915000000D+01  0.0000000000D+00
  0.1843000000D+01  0.0000000000D+00
  0.7124000000D+00  0.0000000000D+00
  0.2637000000D+00  0.1000000000D+01
 s    1  1.00
  0.8594000000D-01  0.1000000000D+01
 p    6  1.00
  0.8039000000D+02  0.6346999640D-02
  0.1863000000D+02  0.4420399749D-01
  0.5694000000D+01  0.1685139904D+00
  0.1953000000D+01  0.3615629795D+00
  0.6702000000D+00  0.4421779749D+00
  0.2166000000D+00  0.2434349862D+00
 p    6  1.00
  0.8039000000D+02  0.0000000000D+00
  0.1863000000D+02  0.0000000000D+00
  0.5694000000D+01  0.0000000000D+00
  0.1953000000D+01  0.1000000000D+01
  0.6702000000D+00  0.0000000000D+00
  0.2166000000D+00  0.0000000000D+00
 p    6  1.00
  0.8039000000D+02  0.0000000000D+00
  0.1863000000D+02  0.0000000000D+00
  0.5694000000D+01  0.0000000000D+00
  0.1953000000D+01  0.0000000000D+00
  0.6702000000D+00  0.1000000000D+01
  0.2166000000D+00  0.0000000000D+00
 p    6  1.00
  0.8039000000D+02  0.0000000000D+00
  0.1863000000D+02  0.0000000000D+00
  0.5694000000D+01  0.0000000000D+00
  0.1953000000D+01  0.0000000000D+00
  0.6702000000D+00  0.0000000000D+00
  0.2166000000D+00  0.1000000000D+01
 p    1  1.00
  0.6568000000D-01  0.1000000000D+01
 d    1  1.00
  0.5014000000D+01  0.1000000000D+01
 d    1  1.00
  0.1725000000D+01  0.1000000000D+01
 d    1  1.00
  0.5860000000D+00  0.1000000000D+01
 d    1  1.00
  0.2070000000D+00  0.1000000000D+01
 f    1  1.00
  0.3562000000D+01  0.1000000000D+01
 f    1  1.00
  0.1148000000D+01  0.1000000000D+01
 f    1  1.00
  0.4600000000D+00  0.1000000000D+01
 g    1  1.00
  0.2376000000D+01  0.1000000000D+01
 g    1  1.00
  0.9240000000D+00  0.1000000000D+01


[MO]
 Sym=      1.1
 Ene=     -26.4120
 Spin= Alpha
 Occup=    2.000000
1 -0.000132044210911
2 -0.000634386738002
3 -0.002559480305867
4 -0.000045180601745
5 0.000172821611611
6 0.0
7 0.0
8 -0.001430930377567
9 0.0
10 0.0
11 -0.001853877834811
12 0.0
13 0.0
14 0.000485408144947
15 0.0
16 0.0
17 0.000441314086189
18 0.000019119157370
19 0.000019119157370
20 -0.000038238314739
21 0.0
22 0.0
23 0.0
24 0.000501306438523
25 0.000501306438523
26 -0.001002612877046
27 0.0
28 0.0
29 0.0
30 0.000105580980951
31 0.000105580980951
32 -0.000211161961903
33 0.0
34 0.0
35 0.0
36 0.0
37 0.0
38 -0.000101820139869
39 0.0
40 0.0
41 0.000068303026268
42 0.0
43 0.0
44 0.000068303026268
45 0.0
46 0.0
47 0.0
48 -0.000291613739882
49 0.0
50 0.0
51 0.000195620443665
52 0.0
53 0.0
54 0.000195620443665
55 0.0
56 -0.000009729147683
57 -0.000009729147683
58 -0.000025944393822
59 0.0
60 0.0
61 0.0
62 0.0
63 0.0
64 0.0
65 -0.000005696805560
66 0.000022787222241
67 0.000022787222241
68 0.0
69 0.0
70 0.0
71 1.00006499047325
72 0.000547649968418
73 0.000464307901838
74 -0.001668359604581
75 0.002828364905659
76 0.001905984409037
77 0.0
78 0.0
79 -0.000933549876898
80 0.0
81 0.0
82 0.000313596820903
83 0.0
84 0.0
85 0.000458532615789
86 0.0
87 0.0
88 -0.000949577621755
89 0.0
90 0.0
91 -0.000249755289184
92 -0.000006972156513
93 -0.000006972156513
94 0.000013944313025
95 0.0
96 0.0
97 0.0
98 0.000019957446772
99 0.000019957446772
100 -0.000039914893544
101 0.0
102 0.0
103 0.0
104 -0.000040453859838
105 -0.000040453859838
106 0.000080907719675
107 0.0
108 0.0
109 0.0
110 -0.000043958334633
111 -0.000043958334633
112 0.000087916669266
113 0.0
114 0.0
115 0.0
116 0.0
117 0.0
118 -0.000003601207103
119 0.0
120 0.0
121 0.000002415763165
122 0.0
123 0.0
124 0.000002415763165
125 0.0
126 0.0
127 0.0
128 0.000003872302796
129 0.0
130 0.0
131 -0.000002597619684
132 0.0
133 0.0
134 -0.000002597619684
135 0.0
136 0.0
137 0.0
138 -0.000034996733602
139 0.0
140 0.0
141 0.000023476522598
142 0.0
143 0.0
144 0.000023476522598
145 0.0
146 -0.000001969583146
147 -0.000001969583146
148 -0.000005252221722
149 0.0
150 0.0
151 0.0
152 0.0
153 0.0
154 0.0
155 -0.000001153269801
156 0.000004613079205
157 0.000004613079205
158 0.0
159 0.0
160 0.0
161 0.000005634809681
162 0.000005634809681
163 0.000015026159150
164 0.0
165 0.0
166 0.0
167 0.0
168 0.0
169 0.0
170 0.000003299406707
171 -0.000013197626830
172 -0.000013197626830
173 0.0
174 0.0
175 0.0
 Sym=      2.1
 Ene=      -2.4700
 Spin= Alpha
 Occup=    2.000000
1 0.99713383515493
2 0.000720454511642
3 0.000152610647797
4 -0.000426548063409
5 -0.000333796990256
6 0.0
7 0.0
8 0.000352972991001
9 0.0
10 0.0
11 -0.000261483947705
12 0.0
13 0.0
14 -0.000151250795320
15 0.0
16 0.0
17 -0.000252257828183
18 -0.000035646305737
19 -0.000035646305737
20 0.000071292611474
21 0.0
22 0.0
23 0.0
24 -0.000353009190049
25 -0.000353009190049
26 0.000706018380098
27 0.0
28 0.0
29 0.0
30 0.000091084453068
31 0.000091084453068
32 -0.000182168906136
33 0.0
34 0.0
35 0.0
36 0.0
37 0.0
38 0.000535122269723
39 0.0
40 0.0
41 -0.000358970931412
42 0.0
43 0.0
44 -0.000358970931412
45 0.0
46 0.0
47 0.0
48 -0.000044850955147
49 0.0
50 0.0
51 0.000030086935370
52 0.0
53 0.0
54 0.000030086935370
55 0.0
56 0.000074538652287
57 0.000074538652287
58 0.000198769739432
59 0.0
60 0.0
61 0.0
62 0.0
63 0.0
64 0.0
65 0.000043645365723
66 -0.000174581462891
67 -0.000174581462891
68 0.0
69 0.0
70 0.0
71 -0.000353005221727
72 0.031195432327849
73 -0.000468612485225
74 -0.000711451782634
75 -0.001981895868258
76 0.000469216397087
77 0.0
78 0.0
79 -0.009659580865433
80 0.0
81 0.0
82 0.000225500144998
83 0.0
84 0.0
85 -0.000516612657395
86 0.0
87 0.0
88 0.000840769389853
89 0.0
90 0.0
91 0.000259892536450
92 -0.000058670077755
93 -0.000058670077755
94 0.000117340155511
95 0.0
96 0.0
97 0.0
98 -0.000351939402994
99 -0.000351939402994
100 0.000703878805988
101 0.0
102 0.0
103 0.0
104 -0.000892180593134
105 -0.000892180593134
106 0.001784361186269
107 0.0
108 0.0
109 0.0
110 -0.000293349082277
111 -0.000293349082277
112 0.000586698164554
113 0.0
114 0.0
115 0.0
116 0.0
117 0.0
118 -0.000016318026826
119 0.0
120 0.0
121 0.000010946465172
122 0.0
123 0.0
124 0.000010946465172
125 0.0
126 0.0
127 0.0
128 -0.000570811852318
129 0.0
130 0.0
131 0.000382912231243
132 0.0
133 0.0
134 0.000382912231243
135 0.0
136 0.0
137 0.0
138 -0.000452150506614
139 0.0
140 0.0
141 0.000303311780655
142 0.0
143 0.0
144 0.000303311780655
145 0.0
146 0.000006859878638
147 0.000006859878638
148 0.000018293009703
149 0.0
150 0.0
151 0.0
152 0.0
153 0.0
154 0.0
155 0.000004016733638
156 -0.000016066934553
157 -0.000016066934553
158 0.0
159 0.0
160 0.0
161 0.000154809765908
162 0.000154809765908
163 0.000412826042420
164 0.0
165 0.0
166 0.0
167 0.0
168 0.0
169 0.0
170 0.000090647317105
171 -0.000362589268422
172 -0.000362589268422
173 0.0
174 0.0
175 0.0
 Sym=      3.1
 Ene=      -1.6280
 Spin= Alpha
 Occup=    2.000000
1 -0.054616579601619
2 0.098124732927742
3 -0.011980252030747
4 -0.054620583987307
5 -0.027345199177299
6 0.0
7 0.0
8 0.13093107976463
9 0.0
10 0.0
11 -0.025684413879063
12 0.0
13 0.0
14 -0.066515974680678
15 0.0
16 0.0
17 -0.037805136508832
18 -0.003717446038408
19 -0.003717446038408
20 0.007434892076815
21 0.0
22 0.0
23 0.0
24 -0.002303586489469
25 -0.002303586489469
26 0.004607172978938
27 0.0
28 0.0
29 0.0
30 -0.000042425713770
31 -0.000042425713770
32 0.000084851427540
33 0.0
34 0.0
35 0.0
36 0.0
37 0.0
38 0.006801175749260
39 0.0
40 0.0
41 -0.004562367390681
42 0.0
43 0.0
44 -0.004562367390681
45 0.0
46 0.0
47 0.0
48 -0.001403011404075
49 0.0
50 0.0
51 0.000941168661816
52 0.0
53 0.0
54 0.000941168661816
55 0.0
56 0.000845776422047
57 0.000845776422047
58 0.002255403792124
59 0.0
60 0.0
61 0.0
62 0.0
63 0.0
64 0.0
65 0.000495235963184
66 -0.001980943852736
67 -0.001980943852736
68 0.0
69 0.0
70 0.0
71 -0.000357378957929
72 0.99154741237725
73 -0.001524364428339
74 -0.002495678313834
75 -0.007276714140938
76 -0.002369255798510
77 0.0
78 0.0
79 -0.025801005821105
80 0.0
81 0.0
82 0.000082931716116
83 0.0
84 0.0
85 -0.002907890384302
86 0.0
87 0.0
88 -0.003710650120212
89 0.0
90 0.0
91 0.002874711307703
92 -0.000023228365352
93 -0.000023228365352
94 0.000046456730704
95 0.0
96 0.0
97 0.0
98 -0.000146320588760
99 -0.000146320588760
100 0.000292641177520
101 0.0
102 0.0
103 0.0
104 -0.001644351894699
105 -0.001644351894699
106 0.003288703789397
107 0.0
108 0.0
109 0.0
110 -0.001582716899810
111 -0.001582716899810
112 0.003165433799620
113 0.0
114 0.0
115 0.0
116 0.0
117 0.0
118 0.000021224145824
119 0.0
120 0.0
121 -0.000014237589848
122 0.0
123 0.0
124 -0.000014237589848
125 0.0
126 0.0
127 0.0
128 -0.000549841370341
129 0.0
130 0.0
131 0.000368844804277
132 0.0
133 0.0
134 0.000368844804277
135 0.0
136 0.0
137 0.0
138 -0.001688304602656
139 0.0
140 0.0
141 0.001132549157479
142 0.0
143 0.0
144 0.001132549157479
145 0.0
146 -0.000046722175510
147 -0.000046722175510
148 -0.000124592468028
149 0.0
150 0.0
151 0.0
152 0.0
153 0.0
154 0.0
155 -0.000027357704693
156 0.000109430818773
157 0.000109430818773
158 0.0
159 0.0
160 0.0
161 0.000302320352461
162 0.000302320352461
163 0.000806187606564
164 0.0
165 0.0
166 0.0
167 0.0
168 0.0
169 0.0
170 0.000177020672413
171 -0.000708082689650
172 -0.000708082689650
173 0.0
174 0.0
175 0.0
 Sym=      4.1
 Ene=      -0.6571
 Spin= Alpha
 Occup=    1.734001
1 0.0
2 0.0
3 0.0
4 0.0
5 0.0
6 0.17879599683522
7 0.0
8 0.0
9 -0.049080154123925
10 0.0
11 0.0
12 -0.095409372210410
13 0.0
14 0.0
15 -0.051421163060285
16 0.0
17 0.0
18 0.0
19 0.0
20 0.0
21 0.0
22 0.009170615308369
23 0.0
24 0.0
25 0.0
26 0.0
27 0.0
28 -0.007915186407093
29 0.0
30 0.0
31 0.0
32 0.0
33 0.0
34 -0.001684679785582
35 0.0
36 -0.002851264555748
37 0.0
38 0.0
39 -0.001275124273698
40 0.0
41 0.0
42 0.005100497094791
43 0.0
44 0.0
45 0.0
46 0.004496372015176
47 0.0
48 0.0
49 0.002010838695612
50 0.0
51 0.0
52 -0.008043354782449
53 0.0
54 0.0
55 0.0
56 0.0
57 0.0
58 0.0
59 0.0
60 -0.001083545837087
61 0.0
62 0.0
63 0.001444727782783
64 0.0
65 0.0
66 0.0
67 0.0
68 0.0
69 -0.000484576429693
70 0.0
71 0.0
72 0.0
73 0.0
74 0.0
75 0.0
76 0.0
77 0.98416679940218
78 0.0
79 0.0
80 -0.002347307097990
81 0.0
82 0.0
83 -0.008508510917465
84 0.0
85 0.0
86 0.024374615849678
87 0.0
88 0.0
89 0.025381535383898
90 0.0
91 0.0
92 0.0
93 0.0
94 0.0
95 0.0
96 -0.000411695868722
97 0.0
98 0.0
99 0.0
100 0.0
101 0.0
102 -0.001844166820741
103 0.0
104 0.0
105 0.0
106 0.0
107 0.0
108 -0.008262851419509
109 0.0
110 0.0
111 0.0
112 0.0
113 0.0
114 -0.013615680096006
115 0.0
116 -0.000156472680897
117 0.0
118 0.0
119 -0.000069976710221
120 0.0
121 0.0
122 0.000279906840885
123 0.0
124 0.0
125 0.0
126 -0.000923041234107
127 0.0
128 0.0
129 -0.000412796589100
130 0.0
131 0.0
132 0.001651186356399
133 0.0
134 0.0
135 0.0
136 -0.002666593934019
137 0.0
138 0.0
139 -0.001192537060971
140 0.0
141 0.0
142 0.004770148243884
143 0.0
144 0.0
145 0.0
146 0.0
147 0.0
148 0.0
149 0.0
150 -0.000123228263522
151 0.0
152 0.0
153 0.000164304351363
154 0.0
155 0.0
156 0.0
157 0.0
158 0.0
159 -0.000055109354797
160 0.0
161 0.0
162 0.0
163 0.0
164 0.0
165 0.001162527523115
166 0.0
167 0.0
168 -0.001550036697487
169 0.0
170 0.0
171 0.0
172 0.0
173 0.0
174 0.000519898113480
175 0.0
 Sym=      7.1
 Ene=      -0.0403
 Spin= Alpha
 Occup=    0.749948
1 0.000228435435899
2 0.82432006010179
3 -0.055078717418735
4 0.059437732412486
5 0.14930953582026
6 0.0
7 0.0
8 -0.47735141465650
9 0.0
10 0.0
11 -0.014999592567754
12 0.0
13 0.0
14 0.12064381708578
15 0.0
16 0.0
17 0.11483067314865
18 0.002218822268705
19 0.002218822268705
20 -0.004437644537409
21 0.0
22 0.0
23 0.0
24 0.010019887048624
25 0.010019887048624
26 -0.020039774097248
27 0.0
28 0.0
29 0.0
30 0.006484361199993
31 0.006484361199993
32 -0.012968722399987
33 0.0
34 0.0
35 0.0
36 0.0
37 0.0
38 -0.005210057616808
39 0.0
40 0.0
41 0.003495012899362
42 0.0
43 0.0
44 0.003495012899362
45 0.0
46 0.0
47 0.0
48 -0.003862410040980
49 0.0
50 0.0
51 0.002590983422583
52 0.0
53 0.0
54 0.002590983422583
55 0.0
56 -0.000748519438176
57 -0.000748519438176
58 -0.001996051835137
59 0.0
60 0.0
61 0.0
62 0.0
63 0.0
64 0.0
65 -0.000438288104592
66 0.001753152418367
67 0.001753152418367
68 0.0
69 0.0
70 0.0
71 -0.000791694619071
72 -0.069491716611668
73 -0.000440682978248
74 -0.009339923136182
75 -0.025887029869521
76 -0.021532405227272
77 0.0
78 0.0
79 0.032851218294636
80 0.0
81 0.0
82 -0.000144999727613
83 0.0
84 0.0
85 0.000358233611031
86 0.0
87 0.0
88 0.002465244675724
89 0.0
90 0.0
91 -0.001195758882466
92 0.000093155223142
93 0.000093155223142
94 -0.000186310446284
95 0.0
96 0.0
97 0.0
98 0.000344319486607
99 0.000344319486607
100 -0.000688638973215
101 0.0
102 0.0
103 0.0
104 0.001166205364567
105 0.001166205364567
106 -0.002332410729134
107 0.0
108 0.0
109 0.0
110 0.001588192454353
111 0.001588192454353
112 -0.003176384908707
113 0.0
114 0.0
115 0.0
116 0.0
117 0.0
118 0.000047140321127
119 0.0
120 0.0
121 -0.000031622688757
122 0.0
123 0.0
124 -0.000031622688757
125 0.0
126 0.0
127 0.0
128 0.000374748930614
129 0.0
130 0.0
131 -0.000251389225004
132 0.0
133 0.0
134 -0.000251389225004
135 0.0
136 0.0
137 0.0
138 0.001239329299417
139 0.0
140 0.0
141 -0.000831367368001
142 0.0
143 0.0
144 -0.000831367368001
145 0.0
146 0.000011332353403
147 0.000011332353403
148 0.000030219609074
149 0.0
150 0.0
151 0.0
152 0.0
153 0.0
154 0.0
155 0.000006635546707
156 -0.000026542186830
157 -0.000026542186830
158 0.0
159 0.0
160 0.0
161 -0.000174478873656
162 -0.000174478873656
163 -0.000465276996417
164 0.0
165 0.0
166 0.0
167 0.0
168 0.0
169 0.0
170 -0.000102164367317
171 0.000408657469270
172 0.000408657469270
173 0.0
174 0.0
175 0.0
 Sym=     10.1
 Ene=       1.2775
 Spin= Alpha
 Occup=    0.013968
1 0.0
2 0.0
3 0.0
4 0.0
5 0.0
6 0.47426226598286
7 0.0
8 0.0
9 -0.15842176978439
10 0.0
11 0.0
12 -0.25482552713858
13 0.0
14 0.0
15 -0.13767171843963
16 0.0
17 0.0
18 0.0
19 0.0
20 0.0
21 0.0
22 0.021807476210805
23 0.0
24 0.0
25 0.0
26 0.0
27 0.0
28 -0.049752237338895
29 0.0
30 0.0
31 0.0
32 0.0
33 0.0
34 -0.008946403462831
35 0.0
36 -0.003519169873989
37 0.0
38 0.0
39 -0.001573820612522
40 0.0
41 0.0
42 0.006295282450087
43 0.0
44 0.0
45 0.0