[Molden Format]
[Atoms] Angs
 c       1                    6  0.000000000000e+00  0.000000000000e+00  0.000000000000e+00
 c       2                    6  1.500700000000e+00  0.000000000000e+00  0.000000000000e+00
 c       3                    6  1.943600000000e+00  0.000000000000e+00  1.280470000000e+00
 c       4                    6  7.935100000000e-01 -7.200000000000e-04  2.188100000000e+00
 c       5                    6 -3.489500000000e-01 -1.840000000000e-03  1.459720000000e+00
 h       6                    1 -4.060100000000e-01  8.774100000000e-01 -5.145600000000e-01
 h       7                    1 -4.060100000000e-01 -8.774100000000e-01 -5.145600000000e-01
 h       8                    1 -1.359310000000e+00 -3.020000000000e-03  1.842100000000e+00
 h       9                    1  2.107450000000e+00 -4.700000000000e-04 -8.938100000000e-01
 h      10                    1  2.977710000000e+00 -4.600000000000e-04  1.596430000000e+00
 h      11                    1  8.604600000000e-01 -1.340000000000e-03  3.267330000000e+00
[GTO]
1
 s           8
      6.665000000000e+03      6.915839628130e-04
      1.000000000000e+03      5.325796152934e-03
      2.280000000000e+02      2.706072104203e-02
      6.471000000000e+01      1.016568461408e-01
      2.106000000000e+01      2.745748236174e-01
      7.495000000000e+00      4.482943189238e-01
      2.797000000000e+00      2.849026107152e-01
      5.215000000000e-01      1.519485920608e-02
 s           8
      6.665000000000e+03     -2.932696526865e-04
      1.000000000000e+03     -2.318035473975e-03
      2.280000000000e+02     -1.149978603857e-02
      6.471000000000e+01     -4.682672700979e-02
      2.106000000000e+01     -1.284661687505e-01
      7.495000000000e+00     -3.012662724629e-01
      2.797000000000e+00     -2.556307023301e-01
      5.215000000000e-01      1.093793361012e+00
 s           1
      1.596000000000e-01      1.000000000000e+00
 p           3
      9.439000000000e+00      5.697925159004e-02
      2.002000000000e+00      3.132072115007e-01
      5.456000000000e-01      7.603767417375e-01
 p           1
      1.517000000000e-01      1.000000000000e+00
 d           1
      5.500000000000e-01      1.000000000000e+00

2
 s           8
      6.665000000000e+03      6.915839628130e-04
      1.000000000000e+03      5.325796152934e-03
      2.280000000000e+02      2.706072104203e-02
      6.471000000000e+01      1.016568461408e-01
      2.106000000000e+01      2.745748236174e-01
      7.495000000000e+00      4.482943189238e-01
      2.797000000000e+00      2.849026107152e-01
      5.215000000000e-01      1.519485920608e-02
 s           8
      6.665000000000e+03     -2.932696526865e-04
      1.000000000000e+03     -2.318035473975e-03
      2.280000000000e+02     -1.149978603857e-02
      6.471000000000e+01     -4.682672700979e-02
      2.106000000000e+01     -1.284661687505e-01
      7.495000000000e+00     -3.012662724629e-01
      2.797000000000e+00     -2.556307023301e-01
      5.215000000000e-01      1.093793361012e+00
 s           1
      1.596000000000e-01      1.000000000000e+00
 p           3
      9.439000000000e+00      5.697925159004e-02
      2.002000000000e+00      3.132072115007e-01
      5.456000000000e-01      7.603767417375e-01
 p           1
      1.517000000000e-01      1.000000000000e+00
 d           1
      5.500000000000e-01      1.000000000000e+00

3
 s           8
      6.665000000000e+03      6.915839628130e-04
      1.000000000000e+03      5.325796152934e-03
      2.280000000000e+02      2.706072104203e-02
      6.471000000000e+01      1.016568461408e-01
      2.106000000000e+01      2.745748236174e-01
      7.495000000000e+00      4.482943189238e-01
      2.797000000000e+00      2.849026107152e-01
      5.215000000000e-01      1.519485920608e-02
 s           8
      6.665000000000e+03     -2.932696526865e-04
      1.000000000000e+03     -2.318035473975e-03
      2.280000000000e+02     -1.149978603857e-02
      6.471000000000e+01     -4.682672700979e-02
      2.106000000000e+01     -1.284661687505e-01
      7.495000000000e+00     -3.012662724629e-01
      2.797000000000e+00     -2.556307023301e-01
      5.215000000000e-01      1.093793361012e+00
 s           1
      1.596000000000e-01      1.000000000000e+00
 p           3
      9.439000000000e+00      5.697925159004e-02
      2.002000000000e+00      3.132072115007e-01
      5.456000000000e-01      7.603767417375e-01
 p           1
      1.517000000000e-01      1.000000000000e+00
 d           1
      5.500000000000e-01      1.000000000000e+00

4
 s           8
      6.665000000000e+03      6.915839628130e-04
      1.000000000000e+03      5.325796152934e-03
      2.280000000000e+02      2.706072104203e-02
      6.471000000000e+01      1.016568461408e-01
      2.106000000000e+01      2.745748236174e-01
      7.495000000000e+00      4.482943189238e-01
      2.797000000000e+00      2.849026107152e-01
      5.215000000000e-01      1.519485920608e-02
 s           8
      6.665000000000e+03     -2.932696526865e-04
      1.000000000000e+03     -2.318035473975e-03
      2.280000000000e+02     -1.149978603857e-02
      6.471000000000e+01     -4.682672700979e-02
      2.106000000000e+01     -1.284661687505e-01
      7.495000000000e+00     -3.012662724629e-01
      2.797000000000e+00     -2.556307023301e-01
      5.215000000000e-01      1.093793361012e+00
 s           1
      1.596000000000e-01      1.000000000000e+00
 p           3
      9.439000000000e+00      5.697925159004e-02
      2.002000000000e+00      3.132072115007e-01
      5.456000000000e-01      7.603767417375e-01
 p           1
      1.517000000000e-01      1.000000000000e+00
 d           1
      5.500000000000e-01      1.000000000000e+00

5
 s           8
      6.665000000000e+03      6.915839628130e-04
      1.000000000000e+03      5.325796152934e-03
      2.280000000000e+02      2.706072104203e-02
      6.471000000000e+01      1.016568461408e-01
      2.106000000000e+01      2.745748236174e-01
      7.495000000000e+00      4.482943189238e-01
      2.797000000000e+00      2.849026107152e-01
      5.215000000000e-01      1.519485920608e-02
 s           8
      6.665000000000e+03     -2.932696526865e-04
      1.000000000000e+03     -2.318035473975e-03
      2.280000000000e+02     -1.149978603857e-02
      6.471000000000e+01     -4.682672700979e-02
      2.106000000000e+01     -1.284661687505e-01
      7.495000000000e+00     -3.012662724629e-01
      2.797000000000e+00     -2.556307023301e-01
      5.215000000000e-01      1.093793361012e+00
 s           1
      1.596000000000e-01      1.000000000000e+00
 p           3
      9.439000000000e+00      5.697925159004e-02
      2.002000000000e+00      3.132072115007e-01
      5.456000000000e-01      7.603767417375e-01
 p           1
      1.517000000000e-01      1.000000000000e+00
 d           1
      5.500000000000e-01      1.000000000000e+00

6
 s           3
      1.301000000000e+01      3.349872639000e-02
      1.962000000000e+00      2.348008011741e-01
      4.446000000000e-01      8.136829578829e-01
 s           1
      1.220000000000e-01      1.000000000000e+00
 p           1
      7.270000000000e-01      1.000000000000e+00

7
 s           3
      1.301000000000e+01      3.349872639000e-02
      1.962000000000e+00      2.348008011741e-01
      4.446000000000e-01      8.136829578829e-01
 s           1
      1.220000000000e-01      1.000000000000e+00
 p           1
      7.270000000000e-01      1.000000000000e+00

8
 s           3
      1.301000000000e+01      3.349872639000e-02
      1.962000000000e+00      2.348008011741e-01
      4.446000000000e-01      8.136829578829e-01
 s           1
      1.220000000000e-01      1.000000000000e+00
 p           1
      7.270000000000e-01      1.000000000000e+00

9
 s           3
      1.301000000000e+01      3.349872639000e-02
      1.962000000000e+00      2.348008011741e-01
      4.446000000000e-01      8.136829578829e-01
 s           1
      1.220000000000e-01      1.000000000000e+00
 p           1
      7.270000000000e-01      1.000000000000e+00

10
 s           3
      1.301000000000e+01      3.349872639000e-02
      1.962000000000e+00      2.348008011741e-01
      4.446000000000e-01      8.136829578829e-01
 s           1
      1.220000000000e-01      1.000000000000e+00
 p           1
      7.270000000000e-01      1.000000000000e+00

11
 s           3
      1.301000000000e+01      3.349872639000e-02
      1.962000000000e+00      2.348008011741e-01
      4.446000000000e-01      8.136829578829e-01
 s           1
      1.220000000000e-01      1.000000000000e+00
 p           1
      7.270000000000e-01      1.000000000000e+00


[MO]
 Ene=    0.000000
 Spin=  Alpha
 Occup=    2.000000
   1    -0.9883921999183289
   2    -0.0047319754346030
   3     0.0044715708233037
   4    -0.0001345552319409
   5     0.0000004599538796
   6    -0.0001704156799814
   7     0.0004753571435567
   8    -0.0000024651888379
   9     0.0006021936917520
  10     0.0020767702672471
  11     0.0021103571156336
  12     0.0020480064756156
  13     0.0000000476607875
  14    -0.0000699491518048
  15     0.0000002747407504
  16    -0.0870539381068530
  17    -0.0004959664989858
  18    -0.0015711433609038
  19     0.0003155917854565
  20     0.0000000116394007
  21    -0.0000025243769469
  22     0.0008411169741928
  23     0.0000005245480103
  24    -0.0001938382308765
  25     0.0002375850233924
  26     0.0003121564517035
  27     0.0003199250358429
  28    -0.0000000924144032
  29    -0.0000919199025701
  30    -0.0000000780807433
  31    -0.0750194838740847
  32    -0.0003194397079035
  33     0.0001396045987633
  34     0.0000357113187871
  35     0.0000000534010247
  36    -0.0000076655673866
  37    -0.0001187436721887
  38    -0.0000003059486662
  39     0.0000082453166422
  40     0.0001488021083977
  41     0.0002279393509699
  42     0.0001464452212605
  43     0.0000000377112819
  44    -0.0000463110291640
  45     0.0000000217746440
  46    -0.0749989398913447
  47    -0.0003193632438110
  48     0.0001399924077058
  49    -0.0000157779307650
  50    -0.0000000259751899
  51     0.0000329413543583
  52     0.0000355978329407
  53     0.0000000567477906
  54    -0.0001138481052091
  55     0.0001646363031442
  56     0.0002278746685555
  57     0.0001305580660598
  58    -0.0000000198782992
  59    -0.0000418883188154
  60     0.0000000435468343
  61    -0.0870862116490811
  62    -0.0004960386071545
  63    -0.0015709839076037
  64    -0.0000758223929355
  65    -0.0000004711490919
  66     0.0003063287839660
  67    -0.0003842713619459
  68    -0.0000010971299727
  69     0.0007729364725663
  70     0.0003514176996982
  71     0.0003122202207313
  72     0.0002061426307136
  73     0.0000000307080550
  74    -0.0000605014726594
  75     0.0000001944990645
  76    -0.0006173079408890
  77    -0.0003874395406578
  78    -0.0000607316473702
  79     0.0000433954519148
  80    -0.0000772631935524
  81    -0.0006182550891461
  82    -0.0003888357045644
  83    -0.0000610302023812
  84    -0.0000434464549059
  85    -0.0000770241468199
  86    -0.0000700015723014
  87    -0.0001081789696702
  88    -0.0000620442481592
  89    -0.0000000509142045
  90    -0.0000209722541286
  91    -0.0000700198433629
  92    -0.0001080896173835
  93    -0.0000059169174286
  94    -0.0000001219706656
  95    -0.0000652322247635
  96     0.0000018402314717
  97    -0.0000342174800571
  98     0.0000003214624375
  99     0.0000000424302168
 100     0.0000174912199451
 101     0.0000018294816497
 102    -0.0000341231530107
 103     0.0000169295692634
 104     0.0000000260356938
 105     0.0000044010768048
 Ene=    0.000000
 Spin=  Alpha
 Occup=    2.000000
   1     0.1249863807600922
   2     0.0004869911013948
   3    -0.0005397724631648
   4    -0.0000363954541759
   5    -0.0000000471152891
   6    -0.0000461235448612
   7    -0.0001159057235686
   8    -0.0000000451210500
   9    -0.0001468546369490
  10    -0.0003305355469882
  11    -0.0003096904168119
  12    -0.0003407287121323
  13     0.0000001093975605
  14    -0.0000247252016503
  15     0.0000001148998733
  16    -0.1111975232990665
  17    -0.0006342403895455
  18     0.0000525562012912
  19    -0.0001251606195611
  20     0.0000001455380833
  21    -0.0002649141723299
  22    -0.0002723371078364
  23     0.0000001203963156
  24    -0.0000883509052710
  25     0.0004374925361736
  26     0.0003129669756753
  27     0.0002162034119098
  28     0.0000000122000692
  29    -0.0001462516518168
  30     0.0000001002714356
  31    -0.6938491335147107
  32    -0.0031320633732767
  33     0.0004506770348330
  34     0.0002622545051218
  35     0.0000003576121679
  36    -0.0000134450234276
  37     0.0002148102503807
  38     0.0000001652382036
  39    -0.0000868498859036
  40     0.0016598095668507
  41     0.0018677463159125
  42     0.0015656989235106
  43    -0.0000000927436660
  44     0.0000103098228926
  45     0.0000001481958810
  46    -0.6933415773501804
  47    -0.0031299075316301
  48     0.0004491403006957
  49    -0.0000742306849669
  50     0.0000003511111292
  51     0.0002519614552722
  52    -0.0001344452692497
  53    -0.0000002332286696
  54     0.0001891341802097
  55     0.0015655927548851
  56     0.0018664190878526
  57     0.0016579190472929
  58    -0.0000002112763766
  59    -0.0000152375644022
  60    -0.0000000772075772
  61    -0.1112366570480750
  62    -0.0006343461677248
  63     0.0000532465760975
  64    -0.0002284625048731
  65    -0.0000001130016205
  66    -0.0001831885371846
  67    -0.0000222804882628
  68     0.0000004101988078
  69    -0.0002852937188914
  70     0.0002852979041648
  71     0.0003130199162827
  72     0.0003682860293879
  73     0.0000000849249842
  74    -0.0001880794867647
  75    -0.0000002794710068
  76     0.0001037638189313
  77    -0.0000297551846554
  78     0.0000116147633434
  79    -0.0000171566663485
  80     0.0000147895580359
  81     0.0001036299418696
  82    -0.0000298302365422
  83     0.0000116104796483
  84     0.0000170833597299
  85     0.0000146638560830
  86    -0.0001161097832216
  87    -0.0000091344429174
  88    -0.0000852543377730
  89    -0.0000001093338182
  90    -0.0000058412784200
  91    -0.0001162248843614
  92    -0.0000091592007477
  93     0.0000141777501955
  94    -0.0000000327181226
  95    -0.0000843434747787
  96    -0.0003349298900777
  97    -0.0002531621842997
  98     0.0001007758852413
  99    -0.0000000222175885
 100     0.0000414258063011
 101    -0.0003348632219364
 102    -0.0002530717561257
 103     0.0000168530034870
 104     0.0000000185341468
 105     0.0001076923398530
 Ene=    0.000000
 Spin=  Alpha
 Occup=    2.000000
   1    -0.0000507737539175
   2    -0.0000002010507641
   3     0.0000004695971728
   4    -0.0000748409612481
   5    -0.0000000365009393
   6     0.0000591017572482
   7    -0.0000777485364233
   8     0.0000002945596972
   9     0.0000615828811435
  10    -0.0000940024308579
  11     0.0000001171943601
  12     0.0000942361141973
  13    -0.0000000938117287
  14    -0.0000260051636146
  15    -0.0000001586049561
  16    -0.1559689635191154
  17    -0.0007369766265926
  18    -0.0006273188622746
  19    -0.0000961457988765
  20     0.0000000435555206
  21    -0.0002179259874438
  22    -0.0000113947966862
  23     0.0000000702992675
  24    -0.0004427281660266
  25     0.0005391567860330
  26     0.0004608052512068
  27     0.0004700752908838
  28     0.0000000046713016
  29    -0.0001858323591800
  30     0.0000000986210115
  31    -0.6904365344813574
  32    -0.0029426187413183
  33     0.0018055491647849
  34    -0.0000592035122674
  35     0.0000000288292892
  36     0.0003104174361336
  37    -0.0004588139795140
  38    -0.0000004440498928
  39     0.0000585632853648
  40     0.0013884003558316
  41     0.0018290475160271
  42     0.0014350308940673
  43    -0.0000000088645792
  44    -0.0002600817129497
  45     0.0000000532262925
  46     0.6908752024107963
  47     0.0029446305306538
  48    -0.0018055892981160
  49    -0.0003156902838950
  50    -0.0000004272378661
  51    -0.0000147724618433
  52    -0.0001636058272814
  53     0.0000002859238925
  54     0.0004324079496010
  55    -0.0015353268071936
  56    -0.0018302461930973
  57    -0.0012902113167463
  58     0.0000002104924909
  59     0.0002198289245176
  60    -0.0000000469548083
  61     0.1562716061214070
  62     0.0007383865092997
  63     0.0006266354955152
  64     0.0001898122641480
  65     0.0000001783702527
  66     0.0001442903673429
  67     0.0004278166814614
  68     0.0000001872060012
  69     0.0001142796728385
  70    -0.0005471656214723
  71    -0.0004615727822003
  72    -0.0004634355330983
  73    -0.0000002004244668
  74     0.0001839088146892
  75     0.0000002011495068
  76    -0.0000001908710762
  77    -0.0000001594382266
  78    -0.0000102897397449
  79     0.0000000487577352
  80     0.0000080637891021
  81     0.0000000953948017
  82     0.0000002131745141
  83    -0.0000102502764475
  84     0.0000000550125506
  85     0.0000081290479242
  86     0.0002063124867140
  87     0.0000983116348682
  88     0.0001088947248843
  89     0.0000001321601159
  90    -0.0000277009581857
  91    -0.0002061780793701
  92    -0.0000982625264456
  93     0.0000522426060757
  94    -0.0000000735354473
  95    -0.0000994127328736
  96    -0.0001567551261000
  97    -0.0001317633247253
  98    -0.0000296149604718
  99     0.0000001425477003
 100     0.0000298164546780
 101     0.0001570076937519
 102     0.0001319489493644
 103    -0.0000358928104082
 104    -0.0000001533130053
 105     0.0000217780825871
 Ene=    0.000000
 Spin=  Alpha
 Occup=    2.000000
   1     0.0107074396772990
   2     0.0000341146464940
   3    -0.0001936461672679
   4     0.0002575137238704
   5     0.0000001354213092
   6    -0.0002297838598515
   7     0.0001131977918423
   8    -0.0000002808539360
   9    -0.0001858877362020
  10     0.0000726820755141
  11    -0.0000125276292103
  12    -0.0000931665105844
  13     0.0000001355051745
  14     0.0000362434212877
  15     0.0000000620319533
  16     0.6157883559580600
  17     0.0026826265804096
  18    -0.0011709282751216
  19    -0.0000529347217421
  20    -0.0000002636415758
  21     0.0000637634175016
  22    -0.0000080629966861
  23     0.0000002570192345
  24    -0.0002813046386445
  25    -0.0014518878786373
  26    -0.0016359848587108
  27    -0.0012073396920671
  28    -0.0000000892039968
  29    -0.0000522157877566
  30     0.0000000738830163
  31    -0.1431734434276374
  32    -0.0005844002792600
  33     0.0013537886884725
  34    -0.0000390617806088
  35    -0.0000001631204874
  36    -0.0001504998014003
  37    -0.0004215985465441
  38    -0.0000002790916895
  39    -0.0003354448367699
  40    -0.0001086075601478
  41     0.0003179428899724
  42     0.0003496853381372
  43     0.0000000151937844
  44    -0.0000204307300719
  45     0.0000000472019416
  46     0.1681211823157182
  47     0.0006714467953090
  48    -0.0015114385374111
  49     0.0001831793633568
  50    -0.0000001656427905
  51     0.0000911257892537
  52     0.0002817590929816
  53     0.0000000311320898
  54     0.0005450215978121
  55    -0.0003917240366369
  56    -0.0003780636403323
  57     0.0000722733431416
  58     0.0000000244506999
  59    -0.0001106088338230
  60    -0.0000003268608963
  61    -0.7582187756420362
  62    -0.0033158730305392
  63     0.0015605005202457
  64    -0.0000959151041545
  65    -0.0000005882837919
  66     0.0000344184710547
  67     0.0003670614418144
  68     0.0000006543297658
  69     0.0000111613800972
  70     0.0014796035339412
  71     0.0020035484253773
  72     0.0017832393441806
  73    -0.0000006992384997
  74    -0.0000136221582754
  75     0.0000001225606699
  76     0.0000081750433904
  77    -0.0000098447135837
  78     0.0000286331206139
  79     0.0000070471700864
  80    -0.0000231455348930
  81     0.0000076565243123
  82    -0.0000102922811320
  83     0.0000285952216808
  84    -0.0000070880151185
  85    -0.0000234189965478
  86    -0.0002132064095933
  87    -0.0001531324094925
  88    -0.0000294694056616
  89    -0.0000000769335650
  90    -0.0000304023934429
  91     0.0001712608017874
  92     0.0001323019149276
  93     0.0000254644910472
  94    -0.0000000589658979
  95     0.0000324671819914
  96     0.0001304129748995
  97     0.0000259826472768
  98    -0.0000988034700336
  99     0.0000001180843879
 100    -0.0000665458355928
 101    -0.0001391727356208
 102    -0.0000327154292382
 103     0.0000422970848255
 104    -0.0000000907334274
 105     0.0001224491197099
 Ene=    0.000000
 Spin=  Alpha
 Occup=    2.000000
   1    -0.1036446363379922
   2    -0.0003293908372190
   3     0.0018740644815009
   4     0.0001534292515413
   5    -0.0000000071677459
   6     0.0001369998069471
   7     0.0004714371547304
   8    -0.0000007130798403
   9     0.0005633429371705
  10     0.0001333315326656
  11     0.0001208725089804
  12     0.0000649186647395
  13    -0.0000001105323725
  14    -0.0001198466246288
  15     0.0000000035095345
  16     0.7611647762077497
  17     0.0033798967611161
  18    -0.0020263948382418
  19    -0.0000194807418440
  20    -0.0000000399399383
  21     0.0001121799732341
  22     0.0004029039939711
  23     0.0000002246887435
  24    -0.0004114959306374
  25    -0.0017187095090545
  26    -0.0019699874234219
  27    -0.0015132751309855
  28    -0.0000000911350464
  29    -0.0000779056891612
  30     0.0000000315961436
  31    -0.1360922871124687
  32    -0.0004825559522364
  33     0.0009099624731769
  34    -0.0000386328436713
  35     0.0000002252287579
  36    -0.0002547221016668
  37    -0.0002539708729351
  38    -0.0000000718018850
  39    -0.0003537841772242
  40     0.0000754607529432
  41     0.0003249919127903
  42     0.0003293312150827
  43     0.0000000848850852
  44    -0.0000119057152326
  45     0.0000000388396230
  46    -0.1041932652244697
  47    -0.0003539334735999
  48     0.0006149106477730
  49    -0.0002055904889549
  50     0.0000000913714100
  51    -0.0000798341214113
  52    -0.0002324636301397
  53    -0.0000000553573809
  54    -0.0002227591520014
  55     0.0002460309891836
  56     0.0002537591980059
  57     0.0001018281229023
  58    -0.0000000168970336
  59     0.0000336947086506
  60     0.0000001308118724
  61     0.6193242172190635
  62     0.0027603904438142
  63    -0.0017447129558402
  64     0.0000960165384423
  65     0.0000005536064353
  66     0.0000144313264755
  67    -0.0004281427480922
  68    -0.0000008688178028
  69     0.0003047938812483
  70    -0.0012170018293891
  71    -0.0015941066214099
  72    -0.0014033604975071
  73     0.0000004710515367
  74    -0.0000191079058068
  75    -0.0000001353419484
  76    -0.0000763286194996
  77     0.0000978846464071
  78     0.0000064674766010
  79    -0.0000685510440621
  80     0.0000018711944351
  81    -0.0000761673355021
  82     0.0000977895739434
  83     0.0000064366785121
  84     0.0000685946609724
  85     0.0000021260436115
  86     0.0001836892497132
  87     0.0000863595939469
  88     0.0000156932651337
  89     0.0000000846970679
  90    -0.0000125539431593
  91     0.0002234720983655
  92     0.0001158296510462
  93    -0.0000109129173032
  94    -0.0000000483945517
  95     0.0000194095360583
  96     0.0000566834407512
  97     0.0000358752142814
  98    -0.0000614787679138
  99     0.0000000735945998
 100    -0.0000219113750764
 101     0.0000288328122418
 102     0.0000297640562116
 103     0.0000016658669444
 104     0.0000000401808510
 105    -0.0000407617213654
 Ene=    0.000000
 Spin=  Alpha
 Occup=    2.000000
   1    -0.0092893598942769
   2     0.1821105484006985
   3     0.0644701326371522
   4     0.0445015669100283
   5    -0.0000637579194175
   6     0.0563605816853926
   7     0.0043922586456691
   8    -0.0000138911783588
   9     0.0055656183188964
  10     0.0106180417706052
  11    -0.0056633105989155
  12     0.0106877855567083
  13     0.0000011518328933
  14     0.0001806502065107
  15    -0.0000192614842429
  16    -0.0127912422758548
  17     0.1897033999123072
  18     0.1123736560072410
  19    -0.0354639935513955
  20    -0.0000180277721984
  21     0.0757882508882536
  22    -0.0182614393645865
  23     0.0000019615134404
  24     0.0167847069124916
  25     0.0102061602423292
  26    -0.0071443427916263
  27     0.0123941701489474
  28     0.0000012084202838
  29     0.0010137026173095
  30    -0.0000029723312396
  31    -0.0128109546895161
  32     0.1957162896856293
  33     0.0980126925704720
  34    -0.0781802027206554
  35    -0.0000415803503421
  36    -0.0346972139388456
  37    -0.0127528826054938
  38    -0.0000046016047816
  39    -0.0038861753771053
  40     0.0090033607717645
  41    -0.0068069837169870
  42     0.0113635489774391
  43     0.0000097341769789
  44    -0.0004220879239320
  45    -0.0000031715373812
  46    -0.0128098391299740
  47     0.1957067495453572
  48     0.0979911585250075
  49    -0.0155667911637041
  50    -0.0000241306670474
  51    -0.0840996553124880
  52    -0.0008110321788586
  53    -0.0000087331665937
  54    -0.0132951101879243
  55     0.0114002649187195
  56    -0.0068061337613726
  57     0.0089646865943871
  58     0.0000163835506738
  59     0.0002374788232119
  60     0.0000025234301560
  61    -0.0127884284876148
  62     0.1896654620103764
  63     0.1123624435750093
  64     0.0819522987268428
  65     0.0001299411879790
  66    -0.0168594312073442
  67     0.0205773811083559
  68     0.0000535202125312
  69    -0.0138572975064365
  70     0.0118810338943086
  71    -0.0071437956178312
  72     0.0107200394070702
  73     0.0000285781463839
  74     0.0014740647270505
  75    -0.0000151150299790
  76     0.0537135785255393
  77     0.0013099787958716
  78     0.0036296336505523
  79    -0.0057605005585997
  80     0.0046008087499833
  81     0.0537536683170614
  82     0.0013045816403819
  83     0.0036328549211143
  84     0.0057666480084808
  85     0.0046013461485839
  86     0.0417416927427680
  87     0.0059213379858504
  88     0.0058888020189591
  89     0.0000069432673125
  90    -0.0014543692668776
  91     0.0417536586640799
  92     0.0059191312023783
  93    -0.0027849321294370
  94     0.0000000301030662
  95     0.0053917358769768
  96     0.0436588544462268
  97     0.0024717220104355
  98    -0.0067095317160404
  99    -0.0000000124658265
 100    -0.0023431778356728
 101     0.0436560573260403
 102     0.0024681339139506
 103    -0.0007192584588893
 104     0.0000018669446853
 105    -0.0070703803826111
 Ene=    0.000000
 Spin=  Alpha
 Occup=    2.000000
   1    -0.0000171893206169
   2     0.0003349176374480
   3     0.0001513207398730
   4     0.0828128902970680
   5     0.0000856572997682
   6    -0.0653501642312482
   7     0.0311194309151022
   8     0.0000210193134715
   9    -0.0245806420205150
  10     0.0172259531169491
  11    -0.0000022698956082
  12    -0.0172193493984600
  13    -0.0000055148155143
  14     0.0047469186885764
  15     0.0000197890167475
  16    -0.0162463641713001
  17     0.2452905984711608
  18     0.1679256716914657
  19     0.0428110801240352
  20    -0.0000046273230320
  21     0.0599519134625312
  22    -0.0009063528117589
  23    -0.0000058720079823
  24     0.0351745291072542
  25     0.0012460369794748
  26    -0.0067604725790872
  27     0.0127187450668276
  28    -0.0000029857318785
  29     0.0094170878172197
  30    -0.0000009560921781
  31    -0.0110153042839151
  32     0.1736626007170644
  33     0.0966840546567858
  34     0.0199533177908206
  35     0.0000028357151644
  36    -0.1281120539915704
  37     0.0062106395019934
  38    -0.0000022524419548
  39    -0.0370842137932149
  40    -0.0106994141752687
  41    -0.0045267650164158
  42     0.0162477774254834
  43    -0.0000055605630652
  44     0.0137897946449140
  45     0.0000041036731343
  46     0.0110464283062561
  47    -0.1741330450766786
  48    -0.0970265025681886
  49     0.1291352129378631
  50     0.0001068954648643
  51     0.0104234359081464
  52     0.0374774200756954
  53     0.0000091646040289
  54     0.0026568076620069
  55    -0.0094174428766264
  56     0.0045401283393412
  57     0.0038363284465763
  58    -0.0000146722031635
  59    -0.0193112521406070
  60    -0.0000137687655980
  61     0.0162356942075478
  62    -0.2452124156761899
  63    -0.1677670509975500
  64    -0.0484960646301607
  65    -0.0000912531478387
  66    -0.0558741701613153
  67    -0.0343891249658664
  68    -0.0000400329975747
  69    -0.0074329379902854
  70    -0.0084373467742281
  71     0.0067546056398303
  72    -0.0055097911755000
  73    -0.0000204923287612
  74    -0.0114276094635943
  75    -0.0000057547386384
  76     0.0001963757233902
  77     0.0000227342846583
  78     0.0012108305176639
  79    -0.0000219361545009
  80    -0.0009362647063867
  81     0.0001256900931355
  82     0.0000053703902055
  83     0.0012065566232090
  84     0.0000145062184804
  85    -0.0009404557847568
  86    -0.1132911779050138
  87    -0.0209001446978883
  88    -0.0145255502875841
  89    -0.0000191017581810
  90     0.0038420088944457
  91     0.1133475199924002
  92     0.0209334872366797
  93    -0.0071211981171954
  94     0.0000073157841128
  95     0.0132342898159330
  96     0.0795924300229493
  97     0.0091182878646832
  98    -0.0101118172606494
  99     0.0000057385152715
 100    -0.0066423480869864
 101    -0.0798097525321343
 102    -0.0091635786723485
 103     0.0041083839254018
 104    -0.0000038964347255
 105     0.0114063852878328
 Ene=    0.000000
 Spin=  Alpha
 Occup=    2.000000
   1    -0.0146713392653377
   2     0.2909913818238621
   3     0.1328369514448179
   4    -0.0044945949357885
   5    -0.0000805175927922
   6    -0.0055455370349658
   7    -0.0100324132883589
   8     0.0000325414411742
   9    -0.0126375001010283
  10     0.0047870210771357
  11    -0.0011971188246114
  12     0.0025585776779427