[Molden Format]
made by pyscf v[2.0.1]
[Atoms] (AU)
C   1   6     0.00000000000000     0.00000000000000    -2.28477993900000
O   2   8     0.00000000000000     0.00000000000000     1.71522006100000
[GTO]
1 0
 s    6 1.00
             3047.5249  0.0018347001629433
             457.36951    0.01403730124668
             103.94869   0.068842606114048
             29.210155    0.23218442062076
              9.286663    0.46794134155879
              3.163927    0.36231203217765
 s    3 1.00
             7.8682724   -0.11933240861517
             1.8812885   -0.16085421161283
             0.5442493     1.1434564825515
 s    1 1.00
             0.1687144                   1
 p    3 1.00
             7.8682724   0.068999095584993
             1.8812885    0.31642397975315
             0.5442493    0.74430825237435
 p    1 1.00
             0.1687144                   1

2 0
 s    6 1.00
             5484.6717   0.001831099805527
             825.23495   0.013950098518422
             188.04696    0.06844509273075
               52.9645    0.23271427528445
              16.89757    0.47019295006289
             5.7996353    0.35852086192309
 s    3 1.00
             15.539616   -0.11077750382508
             3.5999336   -0.14802630511126
             1.0137618     1.1307670390447
 s    1 1.00
             0.2700058                   1
 p    3 1.00
             15.539616   0.070874299543311
             3.5999336    0.33975279781076
             1.0137618    0.72715859531445
 p    1 1.00
             0.2700058                   1
[MO]
 Sym= 1.1
 Ene=     -20.6163335
 Spin= Alpha
 Occup=    1.00000
   1    -5.4993419318551e-05
   2    -0.00048017543842154
   3    0.0010916966465279
   4                     0
   5                     0
   6    -6.2778678076126e-05
   7                     0
   8                     0
   9    0.00097430889997243
  10       0.9959588142483
  11     0.020182783376171
  12    -0.0050499667590371
  13                     0
  14                     0
  15    -0.00060523425632014
  16                     0
  17                     0
  18    0.00085205488101253
 Sym= 2.1
 Ene=    -11.46523658
 Spin= Alpha
 Occup=    1.00000
   1      0.99674852187414
   2     0.019118871754173
   3    -0.0057685839026755
   4                     0
   5                     0
   6    0.00077609731501574
   7                     0
   8                     0
   9    -0.0010743352115077
  10    -3.7745877426854e-05
  11    -0.00043597705470656
  12    0.0012577829488921
  13                     0
  14                     0
  15    -3.7442543325797e-05
  16                     0
  17                     0
  18    -0.00083631811420912
 Sym= 3.1
 Ene=    -1.183773072
 Spin= Alpha
 Occup=    1.00000
   1    -0.022201933806102
   2     0.050202547329065
   3     0.039190990812874
   4                     0
   5                     0
   6     0.039300952100281
   7                     0
   8                     0
   9     0.010580042362978
  10     -0.22914353295526
  11      0.53173627923053
  12      0.54000657027404
  13                     0
  14                     0
  15    0.0013437073660896
  16                     0
  17                     0
  18    -0.011147749536349
 Sym= 4.1
 Ene=   -0.7816560745
 Spin= Alpha
 Occup=    1.00000
   1     -0.22494024980546
   2      0.50186183569696
   3      0.55519462509507
   4                     0
   5                     0
   6    -0.0099021094569651
   7                     0
   8                     0
   9    -0.010750653644076
  10     0.034445828757624
  11    -0.088784511892506
  12    -0.097060277485734
  13                     0
  14                     0
  15    -0.059541923813414
  16                     0
  17                     0
  18    -0.044725894489547
 Sym= 5.1
 Ene=   -0.4847699908
 Spin= Alpha
 Occup=    1.00000
   1                     0
   2                     0
   3                     0
   4      0.03808954884171
   5                     0
   6                     0
   7     0.056264509511954
   8                     0
   9                     0
  10                     0
  11                     0
  12                     0
  13       0.6595233173767
  14                     0
  15                     0
  16      0.47791163264356
  17                     0
  18                     0
 Sym= 6.1
 Ene=   -0.4847699908
 Spin= Alpha
 Occup=    1.00000
   1                     0
   2                     0
   3                     0
   4                     0
   5     0.038089548841711
   6                     0
   7                     0
   8     0.056264509511954
   9                     0
  10                     0
  11                     0
  12                     0
  13                     0
  14       0.6595233173767
  15                     0
  16                     0
  17      0.47791163264356
  18                     0
 Sym= 7.1
 Ene=   -0.4136037168
 Spin= Alpha
 Occup=    1.00000
   1     0.012029664012911
   2    -0.033588960894233
   3    -0.036400531506006
   4                     0
   5                     0
   6      0.57782652654818
   7                     0
   8                     0
   9      0.42391383318732
  10      0.02996138435158
  11    -0.080474631738998
  12     -0.12631929806039
  13                     0
  14                     0
  15     -0.21524702082904
  16                     0
  17                     0
  18     -0.16912170637023
 Sym= 8.1
 Ene=  0.006089594019
 Spin= Alpha
 Occup=    0.00000
   1                     0
   2                     0
   3                     0
   4      0.50761102520854
   5                     0
   6                     0
   7      0.61969092156009
   8                     0
   9                     0
  10                     0
  11                     0
  12                     0
  13     -0.10125958640644
  14                     0
  15                     0
  16    -0.083264829811756
  17                     0
  18                     0
 Sym= 9.1
 Ene=  0.006089594019
 Spin= Alpha
 Occup=    0.00000
   1                     0
   2                     0
   3                     0
   4                     0
   5      0.50761102520854
   6                     0
   7                     0
   8      0.61969092156009
   9                     0
  10                     0
  11                     0
  12                     0
  13                     0
  14     -0.10125958640644
  15                     0
  16                     0
  17    -0.083264829811756
  18                     0
 Sym= 10.1
 Ene=    0.1052272502
 Spin= Alpha
 Occup=    0.00000
   1    -0.047847261288898
   2      0.14218563721064
   3      0.13740094210003
   4                     0
   5                     0
   6      0.32581452395322
   7                     0
   8                     0
   9      0.32639068816038
  10     0.022166250212291
  11    -0.052655253713632
  12     -0.11198526023758
  13                     0
  14                     0
  15      0.53588713542281
  16                     0
  17                     0
  18      0.61373132583746
 Sym= 11.1
 Ene=    0.7078159438
 Spin= Alpha
 Occup=    0.00000
   1    -0.052012250826542
   2       1.0589684294996
   3       -0.985691151548
   4                     0
   5                     0
   6     -0.77935299459233
   7                     0
   8                     0
   9       0.9225466300163
  10     0.004926357948384
  11     0.026248719091306
  12     -0.16557901847282
  13                     0
  14                     0
  15    -0.068914680808517
  16                     0
  17                     0
  18      0.13873450774173
 Sym= 12.1
 Ene=    0.7280390657
 Spin= Alpha
 Occup=    0.00000
   1                     0
   2                     0
   3                     0
   4       1.1014479966993
   5                     0
   6                     0
   7      -1.0448601246237
   8                     0
   9                     0
  10                     0
  11                     0
  12                     0
  13      0.11051045443566
  14                     0
  15                     0
  16    -0.0072904879872796
  17                     0
  18                     0
 Sym= 13.1
 Ene=    0.7280390657
 Spin= Alpha
 Occup=    0.00000
   1                     0
   2                     0
   3                     0
   4                     0
   5       1.1014479966993
   6                     0
   7                     0
   8      -1.0448601246237
   9                     0
  10                     0
  11                     0
  12                     0
  13                     0
  14      0.11051045443566
  15                     0
  16                     0
  17    -0.0072904879872809
  18                     0
 Sym= 14.1
 Ene=    0.8198397253
 Spin= Alpha
 Occup=    0.00000
   1     0.036689014446505
   2      -1.2894751942551
   3       1.4048462219521
   4                     0
   5                     0
   6     -0.68512650204006
   7                     0
   8                     0
   9      0.97613548047343
  10     0.052616839328727
  11     -0.26994965458879
  12      -0.1496664572298
  13                     0
  14                     0
  15    0.0069271446191085
  16                     0
  17                     0
  18      0.41265235132944
 Sym= 15.1
 Ene=     1.201772191
 Spin= Alpha
 Occup=    0.00000
   1                     0
   2                     0
   3                     0
   4      0.13413810344321
   5                     0
   6                     0
   7     -0.25236012107039
   8                     0
   9                     0
  10                     0
  11                     0
  12                     0
  13     -0.94083564886861
  14                     0
  15                     0
  16       1.0757090496049
  17                     0
  18                     0
 Sym= 16.1
 Ene=     1.201772191
 Spin= Alpha
 Occup=    0.00000
   1                     0
   2                     0
   3                     0
   4                     0
   5      0.13413810344321
   6                     0
   7                     0
   8     -0.25236012107039
   9                     0
  10                     0
  11                     0
  12                     0
  13                     0
  14     -0.94083564886861
  15                     0
  16                     0
  17       1.0757090496049
  18                     0
 Sym= 17.1
 Ene=     1.266284641
 Spin= Alpha
 Occup=    0.00000
   1     0.012769588012635
   2     -0.15596131155236
   3     0.065127897516655
   4                     0
   5                     0
   6     -0.18927297193343
   7                     0
   8                     0
   9      0.12168129806129
  10    -0.057539327863984
  11      0.80256750787011
  12     -0.82489728111374
  13                     0
  14                     0
  15        0.835376522244
  16                     0
  17                     0
  18     -0.81339248244764
 Sym= 18.1
 Ene=     1.540207115
 Spin= Alpha
 Occup=    0.00000
   1     0.028951244234678
   2      0.46133205546784
   3     -0.83327493625901
   4                     0
   5                     0
   6     0.078672792142334
   7                     0
   8                     0
   9      -0.6487628320327
  10     0.071936080051397
  11      -1.3036688734807
  12       1.5773232312716
  13                     0
  14                     0
  15      0.59674371024909
  16                     0
  17                     0
  18     -0.94563308407921
 Sym= 19.1
 Ene=    -20.61543527
 Spin= Beta
 Occup=    1.00000
   1    -5.4463408969985e-05
   2    -0.00047636391539364
   3    0.0010810681707892
   4                     0
   5                     0
   6    -6.6033745317462e-05
   7                     0
   8                     0
   9    0.00096409289764174
  10      0.99597611642623
  11      0.02010583295313
  12    -0.0050371311101151
  13                     0
  14                     0
  15    -0.00061652051784258
  16                     0
  17                     0
  18    0.00084652189611077
 Sym= 20.1
 Ene=     -11.4668776
 Spin= Beta
 Occup=    1.00000
   1      0.99671663659211
   2     0.019296420803608
   3    -0.0058193235035148
   4                     0
   5                     0
   6    0.00080213097301925
   7                     0
   8                     0
   9    -0.0010934802538208
  10    -3.599944851912e-05
  11    -0.00044938049204235
  12    0.0012751142292281
  13                     0
  14                     0
  15    -2.2211394592214e-05
  16                     0
  17                     0
  18    -0.00084995656477517
 Sym= 21.1
 Ene=    -1.178334342
 Spin= Beta
 Occup=    1.00000
   1    -0.022866706394207
   2     0.052630374025629
   3     0.039466231968882
   4                     0
   5                     0
   6     0.040736601983233
   7                     0
   8                     0
   9     0.009834909808641
  10     -0.22895096853471
  11      0.53116249614539
  12      0.54017173715238
  13                     0
  14                     0
  15    -0.0035296512699348
  16                     0
  17                     0
  18    -0.012927620769532
 Sym= 22.1
 Ene=   -0.7866963417
 Spin= Beta
 Occup=    1.00000
   1     -0.22551546966338
   2      0.50653691496502
   3      0.55238454821578
   4                     0
   5                     0
   6    -0.0015861372347851
   7                     0
   8                     0
   9    -0.0090529784555104
  10     0.035464371120736
  11    -0.090857472308917
  12     -0.10006877954339
  13                     0
  14                     0
  15      -0.0535603431008
  16                     0
  17                     0
  18    -0.040655272341034
 Sym= 23.1
 Ene=   -0.4832250967
 Spin= Beta
 Occup=    1.00000
   1                     0
   2                     0
   3                     0
   4     0.038694895577667
   5                     0
   6                     0
   7     0.056675644658097
   8                     0
   9                     0
  10                     0
  11                     0
  12                     0
  13      0.65920959850276
  14                     0
  15                     0
  16      0.47809736706762
  17                     0
  18                     0
 Sym= 24.1
 Ene=   -0.4832250967
 Spin= Beta
 Occup=    1.00000
   1                     0
   2                     0
   3                     0
   4                     0
   5     0.038694895577667
   6                     0
   7                     0
   8     0.056675644658097
   9                     0
  10                     0
  11                     0
  12                     0
  13                     0
  14      0.65920959850276
  15                     0
  16                     0
  17      0.47809736706762
  18                     0
 Sym= 25.1
 Ene=   -0.4222484888
 Spin= Beta
 Occup=    1.00000
   1     0.010689420120285
   2     -0.02503901131207
   3    -0.037072868562674
   4                     0
   5                     0
   6      0.60300636822795
   7                     0
   8                     0
   9      0.42775762316082
  10      0.03108113002188
  11    -0.081132251800239
  12     -0.13232902066432
  13                     0
  14                     0
  15     -0.18560561299466
  16                     0
  17                     0
  18     -0.14211531965615
 Sym= 26.1
 Ene=  0.004736309231
 Spin= Beta
 Occup=    0.00000
   1                     0
   2                     0
   3                     0
   4       0.5093597509374
   5                     0
   6                     0
   7      0.61794605930084
   8                     0
   9                     0
  10                     0
  11                     0
  12                     0
  13     -0.10167978086092
  14                     0
  15                     0
  16    -0.083727886017906
  17                     0
  18                     0
 Sym= 27.1
 Ene=  0.004736309231
 Spin= Beta
 Occup=    0.00000
   1                     0
   2                     0
   3                     0
   4                     0
   5      0.50935975093739
   6                     0
   7                     0
   8      0.61794605930084
   9                     0
  10                     0
  11                     0
  12                     0
  13                     0
  14     -0.10167978086092
  15                     0
  16                     0
  17    -0.083727886017906
  18                     0
 Sym= 28.1
 Ene=    0.1156868131
 Spin= Beta
 Occup=    0.00000
   1    -0.046139001625788
   2      0.14230793677775
   3      0.12899615876626
   4                     0
   5                     0
   6      0.30329787674733
   7                     0
   8                     0
   9      0.29541236861938
  10     0.019266633383381
  11    -0.048386558400133
  12    -0.095926936753532
  13                     0
  14                     0
  15      0.54159050929284
  16                     0
  17                     0
  18      0.62483797040376
 Sym= 29.1
 Ene=    0.7049670471
 Spin= Beta
 Occup=    0.00000
   1    -0.051472394473195
   2       1.0318944631077
   3     -0.95514059266031
   4                     0
   5                     0
   6     -0.78950919829179
   7                     0
   8                     0
   9      0.94667466141039
  10    0.0062086790839183
  11     0.021198089078426
  12     -0.17126123345485
  13                     0
  14                     0
  15    -0.066274166620244
  16                     0
  17                     0
  18       0.1471815118099
 Sym= 30.1
 Ene=    0.7271050553
 Spin= Beta
 Occup=    0.00000
   1                     0
   2                     0
   3                     0
   4       1.1007009284103
   5                     0
   6                     0
   7      -1.0460216481117
   8                     0
   9                     0
  10                     0
  11                     0
  12                     0
  13      0.11004283154781
  14                     0
  15                     0
  16    -0.0065480725797013
  17                     0
  18                     0
 Sym= 31.1
 Ene=    0.7271050553
 Spin= Beta
 Occup=    0.00000
   1                     0
   2                     0
   3                     0
   4                     0
   5       1.1007009284103
   6                     0
   7                     0
   8      -1.0460216481117
   9                     0
  10                     0
  11                     0
  12                     0
  13                     0
  14      0.11004283154781
  15                     0
  16                     0
  17    -0.0065480725797031
  18                     0
 Sym= 32.1
 Ene=    0.8152594783
 Spin= Beta
 Occup=    0.00000
   1     0.036992695749705
   2       -1.310251713353
   3        1.428240239477
   4                     0
   5                     0
   6     -0.66306878956889
   7                     0
   8                     0
   9      0.96202009185375
  10     0.052472911290076
  11     -0.26763434103456
  12     -0.15104598119961
  13                     0
  14                     0
  15     0.011949011579517
  16                     0
  17                     0
  18      0.40967933820816
 Sym= 33.1
 Ene=     1.202462311
 Spin= Beta
 Occup=    0.00000
   1                     0
   2                     0
   3                     0
   4      0.13346648362202
   5                     0
   6                     0
   7     -0.25173417489209
   8                     0
   9                     0
  10                     0
  11                     0
  12                     0
  13     -0.94106497722273
  14                     0
  15                     0
  16       1.0755953433183
  17                     0
  18                     0
 Sym= 34.1
 Ene=     1.202462311
 Spin= Beta
 Occup=    0.00000
   1                     0
   2                     0
   3                     0
   4                     0
   5      0.13346648362202
   6                     0
   7                     0
   8     -0.25173417489209
   9                     0
  10                     0
  11                     0
  12                     0
  13                     0
  14     -0.94106497722273
  15                     0
  16                     0
  17       1.0755953433183
  18                     0
 Sym= 35.1
 Ene=     1.272599322
 Spin= Beta
 Occup=    0.00000
   1     0.012424334524258
   2     -0.15496461901592
   3     0.066480520607258
   4                     0
   5                     0
   6      -0.1849035523539
   7                     0
   8                     0
   9      0.12085011730722
  10    -0.058318425295774
  11      0.80966382797788
  12     -0.83030034827524
  13                     0
  14                     0
  15      0.83664940747232
  16                     0
  17                     0
  18      -0.8068304390461
 Sym= 36.1
 Ene=      1.54065373
 Spin= Beta
 Occup=    0.00000
   1     0.029083616671416
   2      0.45959491957974
   3     -0.83214488044448
   4                     0
   5                     0
   6     0.077728165502804
   7                     0
   8                     0
   9     -0.64760293902864
  10     0.071552153826378
  11      -1.3000621314295
  12       1.5740678265565
  13                     0
  14                     0
  15      0.60053257718847
  16                     0
  17                     0
  18     -0.94859754390848
