[Molden Format]
[Molpro variables]
_NUMVAR=  891.0000000000000    
_AVOGAD= 0.6022136736000000E+24
_BOLTZ= 0.1380658000000000E-22
_CLIGHT=  29979245800.00000    
_EV= 0.3674932379085202E-01
_ENULL= 0.8854187817000000E-11
_KJOULE= 0.3808798324128737E-03
_KJOULE/MOL= 0.3808798324128737E-03
_CM= 0.4556335267302901E-05
_CM-1= 0.4556335267302901E-05
_DEB2SI= 0.3335641000000000E-29
_AMU2AU=  1822.888390000000    
_KCAL= 0.1593601117815568E-02
_KCAL/MOL= 0.1593601117815568E-02
_KELVIN= 0.3166811411060229E-05
_JOULE= 0.4359748200000000E-17
_HERTZ= 0.1519829846004524E-15
_HZ= 0.1519829846004524E-15
_JPCAL=  4.184000000000000    
_PLANCK= 0.6626075540000000E-33
_TOA= 0.5291772109200000    
_TOANG= 0.5291772109200000    
_TORAD= 0.1745329251994330E-01
_TOCM=  219474.6306700000    
_TODEBYE=  2.541580000000000    
_TOE= 0.4803242000000000E-09
_TOEV=  27.21138505000000    
_TOHERTZ=  6579683920729000.    
_TOHZ=  6579683920729000.    
_TOK=  315775.0400000000    
_TOKCAL=  627.5096000000000    
_TOKELVIN=  315775.0400000000    
_TOKJ=  2625.500000000000    
_TOKJOULE=  2625.500000000000    
_TOKG= 0.1660565586000000E-26
_ANG=  1.889726124565062    
_ANGSTROM=  1.889726124565062    
_RPAREF=  0.000000000000000    
_RPADISS=  0.000000000000000    
_IGNORE_UNDEF=  2.000000000000000    
_STRICTCHECK=  0.000000000000000    
_SEW_ONEEL=  0.000000000000000    
_CPPDONE=FALSE
_DKROLL_DONE=  0.000000000000000    
_FOCKDONE=TRUE
_GRADONE=FALSE
_HESSDONE=FALSE
_INTDONE=TRUE
_SCFDONE=TRUE
_MODUL_BLOCK=FALSE
_MODUL_CUDA=FALSE
_MODUL_SLATER=FALSE
_MODUL_MRCC=FALSE
_MODUL_NBO6=FALSE
_MODUL_NECI=TRUE
_MODUL_AIMS=TRUE
_MRCC_EXEC=
_FITC_AO_SAVED=FALSE
_FITC_MO_SAVED=FALSE
_SHARED_FS=TRUE
_LSTYP=SEWARD
_INTYP=INTS
_GEOMTYP=ZMAT
_GRADTYP=ALASKA
_DIRECT=FALSE
_DKHO= -1.000000000000000    
_SYNCM=  0.000000000000000    
_BASIS=6-31G
_ZORIENT=  1.000000000000000    
_NELEC=  14.00000000000000    
!SPIN=  0.000000000000000    
_QSDSTEP=  0.000000000000000    
_QSDIRC=  0.000000000000000    
_PROGRAM=HF-SCF
_CPUSTEP= 0.4000000000000001E-01
_SYSSTEP=  0.000000000000000    
_WALLSTEP= 0.6000000000000000E-01
!DFSCF=  0.000000000000000    
!SCSGRD=  0.000000000000000    
_BASINP=  610.0000000000000    
_CARTESIAN=TRUE
_CPUTOT= 0.2700000000000000    
_CPUSORT= 0.1999999999999999E-01
_SYSSORT= 0.9999999999999981E-02
_WALLSORT= 0.2999999932944775E-01
_DFTEXFAC=  1.000000000000000    
_DMX=  0.000000000000000    
_DMY=  0.000000000000000    
_DMZ=-0.5965718354077980    
_DMX_SCF=  0.000000000000000    
_DMY_SCF=  0.000000000000000    
_DMZ_SCF=-0.5965718354077980    
_EHOMO=-0.5562486886343014    
_ELUMO= 0.7094052741562747E-01
_EIGS= -20.68175773869589    
_ENERGY= -112.6077989897058    
_ENERGY_METHOD=HF
_ENERGY_BASIS=6-31G
_GEOMETRY_METHOD=
_GEOMETRY_BASIS=
_ENUC=  19.20000000000000    
_GRADEXFAC=  9999.000000000000    
_GRADMETHOD=  1.000000000000000    
_NMRMETHOD=  0.000000000000000    
_NMRMAGNET=  0.000000000000000    
!GRID_FREEZE= -1.000000000000000    
_ITERATIONS=  10.00000000000000    
_LASTNELEC=  14.00000000000000    
_LASTSPIN=  0.000000000000000    
_LASTSYM=  1.000000000000000    
_MPP_PROG=  0.000000000000000    
_RS2PHASE=  0.000000000000000    
_NPROC_MPP=  1.000000000000000    
_NPROC_MPPX=  1.000000000000000    
_NPROC_SMP=  1.000000000000000    
_NUMSTEP=  0.000000000000000    
_ORBITAL=  2100.200000000000    
_PI=  3.141592653589793    
_SEIG_MIN= 0.3428269440204387E-01
_SEWPROP=TRUE
_STATUS=  1.000000000000000    
_SYSTOT= 0.1300000000000000    
_VERSION=  2015001.000000000    
_WALLTOT= 0.4400000000000000    
_DATE=08-Mar-22
_LASTORB=RHF
_MACHINE= 64 bit serial version
_OUTPUT=/home/jeremy/newCalcsForXray/CO/3morepoints/2.5/CO.xml
_PGROUP=C2v
_TIME=16:18:14
_LIBMOL=/shared/apps/quantum/molpro2015.1/lib/
_VIGRDC=  0.000000000000000    
!VIBCNT=  0.000000000000000    
!RGHFCNT=  0.000000000000000    
!SURFREC=  0.000000000000000    
!ROTREC=  0.000000000000000    
!POLYREC=  0.000000000000000    
!DIPREC=  0.000000000000000    
!DIP4DREC=  0.000000000000000    
!DIPROT=  0.000000000000000    
!DIP4DROT=  0.000000000000000    
!PTREC=  0.000000000000000    
!PT4DREC=  0.000000000000000    
!VSCFREC=  0.000000000000000    
!VCIREC=  0.000000000000000    
!PVCIREC=  0.000000000000000    
!VMP2REC=  0.000000000000000    
!VMCSCFREC=  0.000000000000000    
!VMRCIREC=  0.000000000000000    
!VIBSTATEREC=  0.000000000000000    
!VIBSTATECNT=  0.000000000000000    
!VIBINFO=  0.000000000000000    
!GAREC=  0.000000000000000    
!SCFORB=  21002.00000000000    
!NEWMOL= -1.000000000000000    
!NEWSYM= -1.000000000000000    
_SLFILES=slscratch
_NGSSTO=  9.000000000000000    
_SIN=SIN
_COS=COS
_TAN=TAN
_ACOS=ACOS
_ASIN=ASIN
_ATAN=ATAN
_COSH=COSH
_SINH=SINH
_TANH=TANH
_ABS=ABS
_MOD=MOD
_ERF=ERF
_REFC=REFC
_ERFC=ERFC
_HYPOT=HYPOT
_J0=J0
_J1=J1
_JN=JN
_GAMMA=GAMMA
_LGAMMA=LGAMMA
_Y0=Y0
_Y1=Y1
_YN=YN
_EXP=EXP
_LOG=LOG
_LOG10=LOG10
_SQRT=SQRT
_INT=INT
_NINT=NINT
_MAX=MAX
_MIN=MIN
_COSMO=  0.000000000000000    
_COSMOIT=  0.000000000000000    
_COSMOES=  0.000000000000000    
_COSMOEDS=  0.000000000000000    
_COSMOEC=  0.000000000000000    
_COSMOEDCORR=  0.000000000000000    
_FEPSI=  1.000000000000000    
_SL_IsMM=  0.000000000000000    
_SL_NSYM=  4.000000000000000    
_SL_System_BitSw=  0.000000000000000    
_SL_Unique_atoms=  0.000000000000000    
_SL_GRAD=  0.000000000000000    
_SL_MAXUPD_Hess=  5.000000000000000    
_SL_N_PRINT_COD=  5.000000000000000    
_SL_PRINT_CODES=  0.000000000000000    
_SL_BasType=  0.000000000000000    
_SL_Energy_Pred=  0.000000000000000    
_SL_New_Coords=  0.000000000000000    
_SL_Total_Nuclea=  0.000000000000000    
_SL_Highest_Mltp=  0.000000000000000    
_SL_Ref_Geom=  0.000000000000000    
_SL_Symmetry_ope=  1.000000000000000    
_SL_agrad=  0.000000000000000    
_SL_GrdMax=  0.000000000000000    
_SL_GrdNorm=  0.000000000000000    
_SL_GrdRMS=  0.000000000000000    
_SL_Hss_Q=  0.000000000000000    
_SL_Hss_X=  0.000000000000000    
_SL_BMxOld=  0.000000000000000    
_SL_KtB=  0.000000000000000    
_SL_TROld=  0.000000000000000    
_SL_No_of_Intern=  0.000000000000000    
_SL_Hess=  0.000000000000000    
_SL_K=  0.000000000000000    
!LATTICE= -1.000000000000000    
!NEWLATTICE=  0.000000000000000    
!LATGRAD_VAR=FALSE
!SEW_LATTICE=  1.000000000000000    
!LOCAL=  0.000000000000000    
!SAVEDOM= -1.000000000000000    
!RESTDOM= -1.000000000000000    
!SAVEDOM_HF= -1.000000000000000    
!RESTDOM_HF= -1.000000000000000    
!HESSREC=  0.000000000000000    
!FREQREC=  0.000000000000000    
!NMODREC=  0.000000000000000    
!GTASKS=  0.000000000000000    
!HTASKS=  0.000000000000000    
!SAVEDOM_EOM= -1.000000000000000    
!RESTDOM_EOM= -1.000000000000000    
!GRADSTATE= -1.000000000000000    
!THRCHG= 0.1000000000000000    
!DEBUG= -1.000000000000000    
!CFIT_CPHF=  0.000000000000000    
!RDOMAUX_CPHF=  3.000000000000000    
!THRAO_CPHF= 0.1000000000000000E-09
!THRMO_CPHF= 0.1000000000000000E-08
!THROV_CPHF= 0.1000000000000000E-11
!THRSW_CPHF= 0.1000000000000000E-09
!THRPROD_CPHF= 0.1000000000000000E-08
!THRAOPR_CPHF= 0.1000000000000000E-11
!CFIT_SCFGRD=  0.000000000000000    
!RDOMAUX_SCFGRD=  5.000000000000000    
!THRAO_SCFGRD= 0.1000000000000000E-09
!THRMO_SCFGRD= 0.1000000000000000E-08
!THROV_SCFGRD= 0.1000000000000000E-11
!THRSW_SCFGRD= 0.1000000000000000E-09
!THRPROD_SCFGRD= 0.1000000000000000E-08
!THRAOPR_SCFGRD= 0.1000000000000000E-11
!LOCFIT_SCF=  0.000000000000000    
!LOCFIT_MP2= -1.000000000000000    
_RIDOM=  0.000000000000000    
!CC2_METHOD=  0.000000000000000    
_BASIS2006=FALSE
_SVDDEL= -1.000000000000000    
_SVDDELA= -1.000000000000000    
_SVDDELP= -1.000000000000000    
_SVDDELF= -1.000000000000000    
_SVDDELS= -1.000000000000000    
_SVDDEL_ABS= -1.000000000000000    
_SVDDELA_ABS= -1.000000000000000    
_SVDDELP_ABS= -1.000000000000000    
_SVDDELF_ABS= -1.000000000000000    
_SVDDELS_ABS= -1.000000000000000    
_MAXBASIS=  0.000000000000000    
!OPT_CONICAL=  0.000000000000000    
!CLEARSP_JGRID=  0.000000000000000    
_GRDHYBR=  0.000000000000000    
_STATEGRAD=  1.000000000000000    
_4EXT_NDISKS=  1.000000000000000    
!ZMP=  0.000000000000000    
_MAXIT_ZMP=  500.0000000000000    
_MAXDIS_ZMP=  100.0000000000000    
_ACCU_ZMP=  14.00000000000000    
_SHIFTA_ZMP= -100.0000000000000    
!EMBEDFLAG=  1.000000000000000    
!EMBED=FALSE
!EMBED_F12=FALSE
!EMBEDNUC=  0.000000000000000    
_EMBEDENERGY=  0.000000000000000    
_KSPACETIME=  0.000000000000000    
_RSPACETIME=  0.000000000000000    
!EMBED_DFC=FALSE
!NUM_VOIDS=  0.000000000000000    
_IBODY=  0.000000000000000    
_EMBE_TOTAL=  0.000000000000000    
_EMBE_HF=  0.000000000000000    
_EMBE_CORR=  0.000000000000000    
!EMBED_PROJ=FALSE
!EMBED_TRUNC=  0.000000000000000    
!EMB_PROJ_ZMU=  1000000.000000000    
!CORRECTION=  0.000000000000000    
!CORRECTION_HF=  0.000000000000000    
!EMBED_ENERGY=  0.000000000000000    
!EMBED_NAXC=FALSE
!EMBED_AORB=  0.000000000000000    
!EMBED_NACORR=  0.000000000000000    
!EMBED_MP2=FALSE
!EMBED_TRUNC_PERTURBATION=FALSE
!EMBED_FROZEN=  0.000000000000000    
_CHANGE_BASIS=FALSE
_RESTORE_BASIS=FALSE
_FIX_EMBED_GUESS=FALSE
!EDFT=  0.000000000000000    
_IFASTLATGRAD=  0.000000000000000    
_SINDEX=  0.000000000000000    
_AVDOM_OSV=  0.000000000000000    
_AVDOM_PNO=  0.000000000000000    
_AVDOM_PAO=  0.000000000000000    
_AVDOM_LMO=  0.000000000000000    
_CC2OSV_FLAG=  0.000000000000000    
_TMADC2_FLAG=FALSE
_PROPADC2_FLAG=FALSE
_LEN_VirQ=  0.000000000000000    
_GRDCC2LR_FLAG=FALSE
_GRDADC2_FLAG=FALSE
R1=  2.500000000000000    
GX1=  0.000000000000000    
GY1=  0.000000000000000    
GZ1= -1.427987461799903    
GX2=  0.000000000000000    
GY2=  0.000000000000000    
GZ2=  1.072012538200097    
[Atoms] Angs
C     1    6         0.0000000000        0.0000000000       -0.7556584223
O     2    8         0.0000000000        0.0000000000        0.5672846050
[GTO]
   1 0
 s    6  1.00
  0.3047524900D+04  0.1834737091D-02
  0.4573695200D+03  0.1403732293D-01
  0.1039486800D+03  0.6884262165D-01
  0.2921015500D+02  0.2321844388D+00
  0.9286663000D+01  0.4679413476D+00
  0.3163927000D+01  0.3623119882D+00
 s    3  1.00
  0.7868272300D+01 -0.1193324245D+00
  0.1881288500D+01 -0.1608541561D+00
  0.5442492600D+00  0.1143456443D+01
 s    1  1.00
  0.1687144800D+00  0.1000000000D+01
 p    3  1.00
  0.7868272300D+01  0.6899906693D-01
  0.1881288500D+01  0.3164239597D+00
  0.5442492600D+00  0.7443082892D+00
 p    1  1.00
  0.1687144800D+00  0.1000000000D+01
  
   2 0
 s    6  1.00
  0.5484671700D+04  0.1831074396D-02
  0.8252349500D+03  0.1395017197D-01
  0.1880469600D+03  0.6844507786D-01
  0.5296450000D+02  0.2327143395D+00
  0.1689757000D+02  0.4701928990D+00
  0.5799635300D+01  0.3585208493D+00
 s    3  1.00
  0.1553961600D+02 -0.1107775519D+00
  0.3599933600D+01 -0.1480262626D+00
  0.1013761800D+01  0.1130767020D+01
 s    1  1.00
  0.2700058200D+00  0.1000000000D+01
 p    3  1.00
  0.1553961600D+02  0.7087426737D-01
  0.3599933600D+01  0.3397528370D+00
  0.1013761800D+01  0.7271585736D+00
 p    1  1.00
  0.2700058200D+00  0.1000000000D+01
 
 
[MO]
 Sym=      1.1
 Ene=     -20.6818
 Spin= Alpha
 Occup=    2.000000
1 0.000091330065332
2 -0.000118818438589
3 0.004406737943745
4 0.0
5 0.0
6 0.000250215669523
7 0.0
8 0.0
9 0.003003508691090
10 0.99593083749421
11 0.021740378994899
12 -0.009579755806343
13 0.0
14 0.0
15 -0.002060901834900
16 0.0
17 0.0
18 0.003327694467974
 Sym=      2.1
 Ene=     -11.4602
 Spin= Alpha
 Occup=    2.000000
1 0.99656830367988
2 0.019846383433322
3 -0.005230158423537
4 0.0
5 0.0
6 0.003006255341410
7 0.0
8 0.0
9 -0.001379804467508
10 -0.000210786679450
11 0.000034136063595
12 0.000734272638799
13 0.0
14 0.0
15 -0.000176141146052
16 0.0
17 0.0
18 0.000884324913433
 Sym=      3.1
 Ene=      -1.4266
 Spin= Alpha
 Occup=    2.000000
1 -0.091270807112990
2 0.20002330979104
3 0.010955854101864
4 0.0
5 0.0
6 0.16646333296449
7 0.0
8 0.0
9 -0.042244467580992
10 -0.20365568032531
11 0.45556048236763
12 0.47792727240503
13 0.0
14 0.0
15 -0.13684998409416
16 0.0
17 0.0
18 -0.084388899469253
 Sym=      4.1
 Ene=      -0.7900
 Spin= Alpha
 Occup=    2.000000
1 0.16567868316898
2 -0.39940798638714
3 -0.32303967696977
4 0.0
5 0.0
6 -0.066854933009896
7 0.0
8 0.0
9 0.036388853661141
10 -0.10774689551604
11 0.25817452687687
12 0.35554377852792
13 0.0
14 0.0
15 0.37565909662958
16 0.0
17 0.0
18 0.19472154881335
 Sym=      1.3
 Ene=      -0.5682
 Spin= Alpha
 Occup=    2.000000
1 0.0
2 0.0
3 0.0
4 0.0
5 0.25782828191110
6 0.0
7 0.0
8 0.15341630793127
9 0.0
10 0.0
11 0.0
12 0.0
13 0.0
14 0.56040178048139
15 0.0
16 0.0
17 0.41036865246071
18 0.0
 Sym=      1.2
 Ene=      -0.5682
 Spin= Alpha
 Occup=    2.000000
1 0.0
2 0.0
3 0.0
4 0.25782828191110
5 0.0
6 0.0
7 0.15341630793127
8 0.0
9 0.0
10 0.0
11 0.0
12 0.0
13 0.56040178048139
14 0.0
15 0.0
16 0.41036865246071
17 0.0
18 0.0
 Sym=      5.1
 Ene=      -0.5562
 Spin= Alpha
 Occup=    2.000000
1 -0.11375209529945
2 0.20849672481697
3 0.53945027117803
4 0.0
5 0.0
6 -0.45327927798594
7 0.0
8 0.0
9 -0.12314652317736
10 -0.011663802179589
11 0.029194705229701
12 0.015524389461777
13 0.0
14 0.0
15 0.37822772385824
16 0.0
17 0.0
18 0.26344477842789
 Sym=      2.3
 Ene=       0.0709
 Spin= Alpha
 Occup=    0.000000
1 0.0
2 0.0
3 0.0
4 0.0
5 0.49774719629299
6 0.0
7 0.0
8 0.63277518225964
9 0.0
10 0.0
11 0.0
12 0.0
13 0.0
14 -0.34108585782250
15 0.0
16 0.0
17 -0.39609596555829
18 0.0
 Sym=      2.2
 Ene=       0.0709
 Spin= Alpha
 Occup=    0.000000
1 0.0
2 0.0
3 0.0
4 0.49774719629299
5 0.0
6 0.0
7 0.63277518225964
8 0.0
9 0.0
10 0.0
11 0.0
12 0.0
13 -0.34108585782250
14 0.0
15 0.0
16 -0.39609596555829
17 0.0
18 0.0
 Sym=      6.1
 Ene=       0.3644
 Spin= Alpha
 Occup=    0.000000
1 -0.073704144159079
2 -0.008999728818476
3 1.45117689860772
4 0.0
5 0.0
6 0.23325705722167
7 0.0
8 0.0
9 1.60408389136138
10 0.094601503683998
11 -0.15981941176017
12 -1.54629375172081
13 0.0
14 0.0
15 0.26948744302373
16 0.0
17 0.0
18 0.87825798408098
 Sym=      3.2
 Ene=       0.7236
 Spin= Alpha
 Occup=    0.000000
1 0.0
2 0.0
3 0.0
4 -1.08164927602343
5 0.0
6 0.0
7 1.13393322442035
8 0.0
9 0.0
10 0.0
11 0.0
12 0.0
13 -0.048334085913546
14 0.0
15 0.0
16 -0.12097019423131
17 0.0
18 0.0
 Sym=      3.3
 Ene=       0.7236
 Spin= Alpha
 Occup=    0.000000
1 0.0
2 0.0
3 0.0
4 0.0
5 -1.08164927602343
6 0.0
7 0.0
8 1.13393322442035
9 0.0
10 0.0
11 0.0
12 0.0
13 0.0
14 -0.048334085913549
15 0.0
16 0.0
17 -0.12097019423130
18 0.0
 Sym=      7.1
 Ene=       0.7469
 Spin= Alpha
 Occup=    0.000000
1 0.057515481263215
2 -1.49266699986196
3 1.68738827259365
4 0.0
5 0.0
6 0.47502993588613
7 0.0
8 0.0
9 -0.26420686597192
10 0.018569086039483
11 -0.10618105316137
12 -0.21933247506757
13 0.0
14 0.0
15 -0.059628615039732
16 0.0
17 0.0
18 0.19110390498559
 Sym=      8.1
 Ene=       0.7796
 Spin= Alpha
 Occup=    0.000000
1 -0.043951723336041
2 0.80188965223491
3 -0.72575128625892
4 0.0
5 0.0
6 1.05595105129216
7 0.0
8 0.0
9 -1.01075994084752
10 0.031966334902563
11 -0.12898592803131
12 0.46188167730371
13 0.0
14 0.0
15 0.37902279084335
16 0.0
17 0.0
18 0.18283977620167
 Sym=      9.1
 Ene=       1.1915
 Spin= Alpha
 Occup=    0.000000
1 0.031823414563224
2 0.36896918988492
3 0.10246768213272
4 0.0
5 0.0
6 0.091277269863309
7 0.0
8 0.0
9 0.022587851543191
10 0.050374944673610
11 -0.46824383014926
12 0.28589116625644
13 0.0
14 0.0
15 -0.87524392939795
16 0.0
17 0.0
18 1.21038375796220
 Sym=      4.2
 Ene=       1.2049
 Spin= Alpha
 Occup=    0.000000
1 0.0
2 0.0
3 0.0
4 0.047844533000831
5 0.0
6 0.0
7 -0.40745910203424
8 0.0
9 0.0
10 0.0
11 0.0
12 0.0
13 -0.96570995047459
14 0.0
15 0.0
16 1.19400919830490
17 0.0
18 0.0
 Sym=      4.3
 Ene=       1.2049
 Spin= Alpha
 Occup=    0.000000
1 0.0
2 0.0
3 0.0
4 0.0
5 0.047844533000833
6 0.0
7 0.0
8 -0.40745910203424
9 0.0
10 0.0
11 0.0
12 0.0
13 0.0
14 -0.96570995047459
15 0.0
16 0.0
17 1.19400919830490
18 0.0
 Sym=     10.1
 Ene=       1.7858
 Spin= Alpha
 Occup=    0.000000
1 -0.003545283304850
2 -0.061441293541295
3 -1.81588965763213
4 0.0
5 0.0
6 -0.32081855043437
7 0.0
8 0.0
9 -1.17363013158482
10 0.046841712529052
11 -1.73681361098514
12 3.31103396577819
13 0.0
14 0.0
15 0.37255811648373
16 0.0
17 0.0
18 -1.50394050753090
