
 Working directory              : /tmp/andres/molpro.WPO8vjro4L/
 Global scratch directory       : /tmp/andres/molpro.WPO8vjro4L/
 Wavefunction directory         : /home/andres/wfu/
 Main file repository           : /tmp/andres/molpro.WPO8vjro4L/

 id        : kirranderadamkir

 Nodes                nprocs
 andres-Precision-7560    1
 GA implementation: MPI file
 GA implementation (serial work in mppx): MPI file

 Using customized tuning parameters: mindgm=1; mindgv=20; mindgc=4; mindgr=1; noblas=0; minvec=7
 default implementation of scratch files=df  


 Variables initialized (1015), CPU time= 0.00 sec
 ***,LiF
 memory,800,m
 gprint,civector,orbitals,angles=-1,distance=-1
 gthresh,twoint=1.0d-13
 gthresh,energy=1.0d-7,gradient=1.0d-2
 gthresh,thrpun=0.000000001
 punch,lif_eq.pun,new
 
 orient,noorient
 symmetry,nosym
 angstrom
 geomtyp=xyz
 geometry={
 2
 LiF
 Li   0.0000000000   0.0000000000  -0.7918000000
 F    0.0000000000   0.0000000000   0.7918000000
 }
 
 basis,f=avtz,li=vtz
 
 {hf
 wf,12,1
 }
 
 {multi
 failsafe
 maxit,40
 config,det
 occ,7
 closed,3
 wf,12,1
 state,4
 orbital,2140.3
 }
 
 put,molden,lif_eq.mld
 Commands initialized (834), CPU time= 0.00 sec, 672 directives.
 Default parameters read. Elapsed time= 0.03 sec

 Checking input...
 Passed
1


                                         ***  PROGRAM SYSTEM MOLPRO  ***
                                       Copyright, TTI GmbH Stuttgart, 2015
                                    Version 2022.2 linked Thu Sep 29 12:48:12 2022


 **********************************************************************************************************************************
 LABEL *   LiF                                                                           
  64 bit serial version                                                                  DATE: 11-Sep-23          TIME: 16:53:00  
 **********************************************************************************************************************************

 SHA1:             51306cdc306ce2a111a2867affebcb289530e0a7
 **********************************************************************************************************************************

 Memory per process:       800 MW
 Total memory per node:    800 MW

 GA preallocation disabled
 GA check disabled

 Variable memory set to 800.0 MW



 THRESHOLDS:

 ZERO    =  1.00D-12  ONEINT  =  1.00D-12  TWOINT  =  1.00D-13  PREFAC  =  1.00D-14  XXXXXX  =  1.00D-09  EORDER  =  1.00D-04
 ENERGY  =  0.00D+00  ETEST   =  0.00D+00  EDENS   =  0.00D+00  THRDEDEF=  1.00D-06  GRADIENT=  1.00D-05  STEP    =  1.00D-03
 ORBITAL =  1.00D-05  CIVEC   =  1.00D-05  COEFF   =  1.00D-04  PRINTCI =  5.00D-02  PUNCHCI =  9.90D+01  OPTGRAD =  3.00D-04
 OPTENERG=  1.00D-06  OPTSTEP =  3.00D-04  THRGRAD =  1.00D-10  COMPRESS=  1.00D-11  VARMIN  =  1.00D-07  VARMAX  =  1.00D-03
 THRDOUB =  0.00D+00  THRDIV  =  1.00D-05  THRRED  =  1.00D-07  THRPSP  =  1.00D+00  THRDC   =  1.00D-10  THRCS   =  1.00D-10
 THRNRM  =  1.00D-08  THREQ   =  0.00D+00  THRDE   =  1.00D+00  THRREF  =  1.00D-05  SPARFAC =  1.00D+00  THRDLP  =  1.00D-07
 THRDIA  =  1.00D-10  THRDLS  =  1.00D-07  THRGPS  =  0.00D+00  THRKEX  =  0.00D+00  THRDIS  =  2.00D-01  THRVAR  =  1.00D-10
 THRLOC  =  1.00D-06  THRGAP  =  1.00D-06  THRLOCT = -1.00D+00  THRGAPT = -1.00D+00  THRORB  =  1.00D-06  THRMLTP =  0.00D+00
 THRCPQCI=  1.00D-10  KEXTA   =  0.00D+00  THRCOARS=  0.00D+00  SYMTOL  =  1.00D-06  GRADTOL =  1.00D-06  THROVL  =  1.00D-08
 THRORTH =  1.00D-08  THRDLOVL= -1.00D+00  GRID    =  1.00D-06  GRIDMAX =  1.00D-03  DTMAX   =  0.00D+00  THROCCDE=  1.00D-01
 THROCCDE=  1.00D-01  THRPRINT=  2.50D-01


 THRESHOLDS:

 ZERO    =  1.00D-12  ONEINT  =  1.00D-12  TWOINT  =  1.00D-13  PREFAC  =  1.00D-14  XXXXXX  =  1.00D-09  EORDER  =  1.00D-04
 ENERGY  =  1.00D-07  ETEST   =  0.00D+00  EDENS   =  0.00D+00  THRDEDEF=  1.00D-06  GRADIENT=  1.00D-02  STEP    =  1.00D-03
 ORBITAL =  1.00D-05  CIVEC   =  1.00D-05  COEFF   =  1.00D-04  PRINTCI =  5.00D-02  PUNCHCI =  9.90D+01  OPTGRAD =  3.00D-04
 OPTENERG=  1.00D-06  OPTSTEP =  3.00D-04  THRGRAD =  1.00D-10  COMPRESS=  1.00D-11  VARMIN  =  1.00D-07  VARMAX  =  1.00D-03
 THRDOUB =  0.00D+00  THRDIV  =  1.00D-05  THRRED  =  1.00D-07  THRPSP  =  1.00D+00  THRDC   =  1.00D-10  THRCS   =  1.00D-10
 THRNRM  =  1.00D-08  THREQ   =  0.00D+00  THRDE   =  1.00D+00  THRREF  =  1.00D-05  SPARFAC =  1.00D+00  THRDLP  =  1.00D-07
 THRDIA  =  1.00D-10  THRDLS  =  1.00D-07  THRGPS  =  0.00D+00  THRKEX  =  0.00D+00  THRDIS  =  2.00D-01  THRVAR  =  1.00D-10
 THRLOC  =  1.00D-06  THRGAP  =  1.00D-06  THRLOCT = -1.00D+00  THRGAPT = -1.00D+00  THRORB  =  1.00D-06  THRMLTP =  0.00D+00
 THRCPQCI=  1.00D-10  KEXTA   =  0.00D+00  THRCOARS=  0.00D+00  SYMTOL  =  1.00D-06  GRADTOL =  1.00D-06  THROVL  =  1.00D-08
 THRORTH =  1.00D-08  THRDLOVL= -1.00D+00  GRID    =  1.00D-06  GRIDMAX =  1.00D-03  DTMAX   =  0.00D+00  THROCCDE=  1.00D-01
 THROCCDE=  1.00D-01  THRPRINT=  2.50D-01


 THRESHOLDS:

 ZERO    =  1.00D-12  ONEINT  =  1.00D-12  TWOINT  =  1.00D-13  PREFAC  =  1.00D-14  XXXXXX  =  1.00D-09  EORDER  =  1.00D-04
 ENERGY  =  1.00D-07  ETEST   =  0.00D+00  EDENS   =  0.00D+00  THRDEDEF=  1.00D-06  GRADIENT=  1.00D-02  STEP    =  1.00D-03
 ORBITAL =  1.00D-05  CIVEC   =  1.00D-05  COEFF   =  1.00D-04  PRINTCI =  5.00D-02  PUNCHCI =  1.00D-09  OPTGRAD =  3.00D-04
 OPTENERG=  1.00D-06  OPTSTEP =  3.00D-04  THRGRAD =  1.00D-10  COMPRESS=  1.00D-11  VARMIN  =  1.00D-07  VARMAX  =  1.00D-03
 THRDOUB =  0.00D+00  THRDIV  =  1.00D-05  THRRED  =  1.00D-07  THRPSP  =  1.00D+00  THRDC   =  1.00D-10  THRCS   =  1.00D-10
 THRNRM  =  1.00D-08  THREQ   =  0.00D+00  THRDE   =  1.00D+00  THRREF  =  1.00D-05  SPARFAC =  1.00D+00  THRDLP  =  1.00D-07
 THRDIA  =  1.00D-10  THRDLS  =  1.00D-07  THRGPS  =  0.00D+00  THRKEX  =  0.00D+00  THRDIS  =  2.00D-01  THRVAR  =  1.00D-10
 THRLOC  =  1.00D-06  THRGAP  =  1.00D-06  THRLOCT = -1.00D+00  THRGAPT = -1.00D+00  THRORB  =  1.00D-06  THRMLTP =  0.00D+00
 THRCPQCI=  1.00D-10  KEXTA   =  0.00D+00  THRCOARS=  0.00D+00  SYMTOL  =  1.00D-06  GRADTOL =  1.00D-06  THROVL  =  1.00D-08
 THRORTH =  1.00D-08  THRDLOVL= -1.00D+00  GRID    =  1.00D-06  GRIDMAX =  1.00D-03  DTMAX   =  0.00D+00  THROCCDE=  1.00D-01
 THROCCDE=  1.00D-01  THRPRINT=  2.50D-01


 PUNCHFILE LIF_EQ.PUN OPENED
 SETTING GEOMTYP        =    XYZ
 ZSYMEL=NOSYM
 ZUNIT=ANG

 SETTING BASIS          =    F=AVTZ,LI=VTZ


 Recomputing integrals since basis changed


 Using spherical harmonics

 Library entry LI     S cc-pVTZ              selected for orbital group  1
 Library entry LI     P cc-pVTZ              selected for orbital group  1
 Library entry LI     D cc-pVTZ              selected for orbital group  1
 Library entry LI     F cc-pVTZ              selected for orbital group  1
 Library entry F      S aug-cc-pVTZ          selected for orbital group  2
 Library entry F      P aug-cc-pVTZ          selected for orbital group  2
 Library entry F      D aug-cc-pVTZ          selected for orbital group  2
 Library entry F      F aug-cc-pVTZ          selected for orbital group  2


 PROGRAM * SEWARD (Integral evaluation for generally contracted gaussian basis sets)     Author: Roland Lindh, 1990

 Geometry written to block  1 of record 700


 Point group  C1  



 ATOMIC COORDINATES

 NR  ATOM    CHARGE       X              Y              Z

   1  LI      3.00    0.000000000    0.000000000   -1.496285145
   2  F       9.00    0.000000000    0.000000000    1.496285145

 NUCLEAR CHARGE:                   12
 NUMBER OF PRIMITIVE AOS:         115
 NUMBER OF SYMMETRY AOS:          101
 NUMBER OF CONTRACTIONS:           76   (   76A   )
 NUMBER OF INNER CORE ORBITALS:     0   (    0A   )
 NUMBER OF OUTER CORE ORBITALS:     2   (    2A   )
 NUMBER OF VALENCE ORBITALS:        8   (    8A   )


 NUCLEAR REPULSION ENERGY    9.02234446

 EXTRA SYMMETRY OF AOS IN SYMMETRY 1:   1 1 1 1 2 3 1 2 3 1   2 3 1 1 4 2 5 3 1 4   2 5 3 2 3 1 6 4 7 5   1 1 1 1 1 2 3 1 2 3
                                        1 2 3 1 2 3 1 1 4 2   5 3 1 4 2 5 3 1 4 2   5 3 2 3 1 6 4 7 5 2   3 1 6 4 7 5

 Eigenvalues of metric

         1 0.486E-03 0.170E-02 0.393E-02 0.776E-02 0.776E-02 0.124E-01 0.233E-01 0.233E-01


 Contracted 2-electron integrals neglected if value below      1.0D-13
 AO integral compression algorithm  1   Integral accuracy      1.0D-13

     10.486 MB (compressed) written to integral file ( 21.8%)


 NUMBER OF SORTED TWO-ELECTRON INTEGRALS:    4282201.     BUFFER LENGTH:  32768
 NUMBER OF SEGMENTS:   1  SEGMENT LENGTH:    4282201      RECORD LENGTH: 524288

 Memory used in sort:       4.84 MW

 SORT1 READ     5977830. AND WROTE      831755. INTEGRALS IN      3 RECORDS. CPU TIME:     0.02 SEC, REAL TIME:     0.02 SEC
 SORT2 READ      831755. AND WROTE     4282201. INTEGRALS IN     40 RECORDS. CPU TIME:     0.04 SEC, REAL TIME:     0.04 SEC

 FILE SIZES:   FILE 1:    40.7 MBYTE,  FILE 4:    12.6 MBYTE,   TOTAL:     53.3 MBYTE

 OPERATOR DM      FOR CENTER  0  COORDINATES:    0.000000    0.000000    0.000000


 **********************************************************************************************************************************
 DATASETS  * FILE   NREC   LENGTH (MB)   RECORD NAMES
              1      19       35.18       500      610      700      900      950      970     1000      129      960     1100   
                                          VAR    BASINP    GEOM    SYMINP    ZMAT    AOBASIS   BASIS     P2S    ABASIS      S 
                                         1400     1410     1200     1210     1080     1600     1650     1300     1700   
                                           T        V       H0       H01     AOSYM     SMH    MOLCAS    ERIS     OPER   

 PROGRAMS   *        TOTAL       INT
 CPU TIMES  *         0.32      0.25
 REAL TIME  *         0.72 SEC
 DISK USED  *        51.11 MB
 **********************************************************************************************************************************


 Program * Restricted Hartree-Fock

 Orbital guess generated from atomic densities. Full valence occupancy:    7

 Initial occupancy:   6

 NELEC=   12   SYM=1   MS2= 0   THRE=1.0D-09   THRD=1.0D-06   THRG=1.0D-06  HFMA2=F  DIIS_START=2   DIIS_MAX=10   DIIS_INCORE=F

 Level shifts:    0.00 (CLOSED)    0.00 (OPEN)    0.30 (GAP_MIN)

 ITER           ETOT              DE          GRAD        DDIFF     DIIS  NEXP   TIME(IT)  TIME(TOT)  DIAG
   1     -106.90772773    -106.90772773     0.00D+00     0.90D-01     0     0       0.01      0.02    start
   2     -106.94606824      -0.03834051     0.15D-01     0.28D-01     1     0       0.01      0.03    diag
   3     -106.98247058      -0.03640234     0.13D-01     0.92D-02     2     0       0.02      0.05    diag
   4     -106.98259929      -0.00012871     0.72D-03     0.12D-02     3     0       0.01      0.06    diag
   5     -106.98260428      -0.00000499     0.94D-04     0.17D-03     4     0       0.01      0.07    diag
   6     -106.98260470      -0.00000043     0.18D-04     0.51D-04     5     0       0.01      0.08    diag
   7     -106.98260473      -0.00000002     0.47D-05     0.17D-04     6     0       0.02      0.10    diag
   8     -106.98260473      -0.00000000     0.77D-06     0.22D-05     7     0       0.01      0.11    fixocc
   9     -106.98260473      -0.00000000     0.13D-06     0.31D-06     8     0       0.01      0.12    diag
  10     -106.98260473      -0.00000000     0.27D-07     0.46D-07     0     0       0.02      0.14    diag/orth

 Final occupancy:   6

 !RHF STATE 1.1 Energy               -106.982604727830
  RHF One-electron energy            -169.261545023474
  RHF Two-electron energy              53.256595830893
  RHF Kinetic energy                  106.918174592379
  RHF Nuclear energy                    9.022344464752
  RHF Virial quotient                  -1.000602611630

 !RHF STATE 1.1 Dipole moment           0.00000000    -0.00000000    -2.57682702
 Dipole moment /Debye                   0.00000000    -0.00000000    -6.54964100

 ELECTRON ORBITALS
 =================

  Orbital  Occupation    Energy    Cen Mu Typ  Coefficients
    1.1     2.00000   -26.11388     2  1  s    0.99916
    2.1     2.00000    -2.43782     1  1  s    0.99561
    3.1     2.00000    -1.37717     2  2  s    0.94906
    4.1     2.00000    -0.49724     1  2  s   -0.43466    1  1  pz  -0.51618    2  1  pz   0.91392
    5.1     2.00000    -0.47403     2  1  px   0.26665    2  1  py   0.87006
    6.1     2.00000    -0.47403     2  1  px   0.87006    2  1  py  -0.26665


 HOMO      6.1    -0.474029 =     -12.8990eV
 LUMO      7.1    -0.004760 =      -0.1295eV
 LUMO-HOMO         0.469269 =      12.7694eV

 Orbitals saved in record  2100.2


 **********************************************************************************************************************************
 DATASETS  * FILE   NREC   LENGTH (MB)   RECORD NAMES
              1      19       35.18       500      610      700      900      950      970     1000      129      960     1100   
                                          VAR    BASINP    GEOM    SYMINP    ZMAT    AOBASIS   BASIS     P2S    ABASIS      S 
                                         1400     1410     1200     1210     1080     1600     1650     1300     1700   
                                           T        V       H0       H01     AOSYM     SMH    MOLCAS    ERIS     OPER   

              2       4        0.46       700     1000      520     2100   
                                         GEOM     BASIS   MCVARS     RHF  

 PROGRAMS   *        TOTAL    HF-SCF       INT
 CPU TIMES  *         0.46      0.14      0.25
 REAL TIME  *         0.88 SEC
 DISK USED  *        51.11 MB
 **********************************************************************************************************************************

 PROGRAM * MULTI (Direct Multiconfiguration SCF)       Authors: P.J. Knowles, H.-J. Werner (1984)
                                                                D.A. Kreplin, P.J. Knowles, H.-J. Werner (2019)

 Number of closed-shell orbitals:   3 (    3)
 Number of active  orbitals:        4 (    4)
 Number of external orbitals:      69 (   69)

 State symmetry 1

 Number of active electrons:   6    Spin symmetry=Singlet   Space symmetry=1
 Number of states:             4
 Number of CSFs:              10   (16 determinants, 16 intermediate states)

 Molecular orbitals read from record     2100.2  Type=RHF/CANONICAL  
 *** IN SYMMETRY 1 ORBITAL  5 SYMMETRY CONTAMINATION OF 0.235D+00 HAS BEEN REMOVED
 *** IN SYMMETRY 1 ORBITAL  6 SYMMETRY CONTAMINATION OF 0.235D+00 HAS BEEN REMOVED

 EXTRA SYMMETRY OF MOS IN SYMMETRY 1:   1 1 1 1 3 2 1 2 3 1   1 2 3 1 4 5 1 2 3 2   3 1 1 3 2 4 5 6 7 1   2 3 1 4 5 3 2 1 1 4
                                        5 2 3 1 2 3 1 1 2 3   4 5 6 7 1 4 5 3 2 1   2 3 1 6 7 4 5 2 3 1   5 4 1 2 3 1

 Wavefunction dump at record             2140.3

 Convergence thresholds  0.10E-01 (gradient)  0.10E-06 (energy)

 Weight factors for state symmetry  1:    0.25000   0.25000   0.25000   0.25000
 
 Number of orbital rotations:  495  ( 12 closed/active, 207 closed/virtual, 0 active/active, 276 active/virtual )
 Total number of variables:    559
 
 Second-order MCSCF: L-BFGS accelerated
 
 ITER  MIC  NCI  NEG     ENERGY(VAR)    ENERGY(PROJ) ENERGY CHANGE       GRAD(0)  GRAD(ORB)   GRAD(CI)      STEP      TIME
   1   19   14    0   -106.73391391    -106.84884850   -0.11493458    0.55676543 0.00660810 0.00000000  0.53E+00      0.13
   2    6    5    0   -106.80839663    -106.81822816   -0.00983153    0.23899556 0.00000294 0.00000000  0.84E-01      0.18
   3    6    5    0   -106.81834405    -106.81834786   -0.00000381    0.00496117 0.00000003 0.00000000  0.15E-02      0.22
   4    3    3    0   -106.81834786    -106.81834786   -0.00000000    0.00000233 0.00000000 0.00000000  0.86E-06      0.26
   5    2    2    0   -106.81834786    -106.81834786    0.00000000    0.00000000 0.00000000 0.00000000  0.58E-10      0.30

 CONVERGENCE REACHED!  Final gradient:    0.00000000 ( 0.10E-12)
                       Final energy:   -106.81834786
 
 Results for state 1.1
 =====================
 !MCSCF STATE 1.1 Energy                      -106.909878188003
 Nuclear energy                                  9.02234446
 Kinetic energy                                109.10487955
 One electron energy                          -171.42065807
 Two electron energy                            55.48843541
 Virial ratio                                    1.97988173
 
 !MCSCF STATE 1.1 Dipole moment                 -0.00000000    -0.00000000    -2.69917604
 Dipole moment /Debye                           -0.00000000    -0.00000000    -6.86062117
 
 Results for state 2.1
 =====================
 !MCSCF STATE 2.1 Energy                      -106.793929973294
 Nuclear energy                                  9.02234446
 Kinetic energy                                106.16058574
 One electron energy                          -165.10677817
 Two electron energy                            49.29050373
 Virial ratio                                    2.00596591
 
 !MCSCF STATE 2.1 Dipole moment                 -0.00000000     0.00000000     1.49226177
 Dipole moment /Debye                           -0.00000000     0.00000000     3.79295108
 
 Results for state 3.1
 =====================
 !MCSCF STATE 3.1 Energy                      -106.793929973294
 Nuclear energy                                  9.02234446
 Kinetic energy                                106.16058574
 One electron energy                          -165.10677817
 Two electron energy                            49.29050373
 Virial ratio                                    2.00596591
 
 !MCSCF STATE 3.1 Dipole moment                 -0.00000000    -0.00000000     1.49226177
 Dipole moment /Debye                           -0.00000000    -0.00000000     3.79295108
 
 Results for state 4.1
 =====================
 !MCSCF STATE 4.1 Energy                      -106.775653315854
 Nuclear energy                                  9.02234446
 Kinetic energy                                106.17786320
 One electron energy                          -165.14329050
 Two electron energy                            49.34529272
 Virial ratio                                    2.00563008
 
 !MCSCF STATE 4.1 Dipole moment                 -0.00000000    -0.00000000     1.44365749
 Dipole moment /Debye                           -0.00000000    -0.00000000     3.66941133
 
 State-averaged charge density matrix saved on record 2140.3 (density set 1)
 
 Expectation values: (only non-zero values are shown)
 
 !MCSCF expec                       <1.1|DMZ|1.1>    -2.699176037388 au =    -6.860621173561 Debye
 !MCSCF expec                       <2.1|DMZ|2.1>     1.492261765390 au =     3.792951079262 Debye
 !MCSCF expec                       <3.1|DMZ|3.1>     1.492261765390 au =     3.792951079262 Debye
 !MCSCF expec                       <4.1|DMZ|4.1>     1.443657489224 au =     3.669411331735 Debye
 
 Transition values: (only non-zero values with the ground state are shown)
 
 !MCSCF trans                       <1.1|DMX|3.1>    -0.223917907042 au =    -0.569142550508 Debye
 
 !MCSCF trans                       <1.1|DMY|2.1>    -0.223917907042 au =    -0.569142550508 Debye
 
 !MCSCF trans                       <1.1|DMZ|4.1>    -0.595447349279 au =    -1.513476200004 Debye
 
 EXTRA SYMMETRY OF MOS IN SYMMETRY 1:   1 1 1 3 2 1 1 3 2 1   1 3 2 1 1 4 5 3 2 3   2 1 1 3 2 4 5 6 7 1   2 3 1 4 5 3 2 1 4 5
                                        1 2 3 1 2 3 1 1 3 2   4 5 7 6 1 4 5 2 3 1   2 3 1 6 7 4 5 3 2 1   5 4 1 3 2 1
 
  NATURAL ORBITALS (STATE AVERAGED)
  =================================

  Orbital  Occupation    Energy    Cen Mu Typ  Coefficients
    1.1     2.00000   -26.40636     2  1  s    0.99919
    2.1     2.00000    -2.47266     1  1  s    0.99754
    3.1     2.00000    -1.61820     2  2  s    0.98797
    4.1     1.75000    -0.65048     2  1  py   0.97368
    5.1     1.75000    -0.65048     2  1  px   0.97368
    6.1     1.75000    -0.66834     1  2  s   -0.35717    1  1  pz  -0.32507    2  1  pz   0.96957
    7.1     0.75000    -0.04038     1  2  s    0.85717    1  1  pz  -0.47059
 
 Natural orbital dump (state averaged) at molpro section 2140.3 (Orbital set 2)
 
 Transform the CI vectors
 
 CI Coefficients of symmetry 1
 =============================
 
 2220           0.99212599      0.00000000     -0.00000000      0.12523481
 b22a          -0.00000000     -0.70710647     -0.00000000      0.00000000
 2a2b           0.00000000      0.00000000      0.70710647      0.00000000
 a22b           0.00000000      0.70710647      0.00000000     -0.00000000
 2b2a          -0.00000000     -0.00000000     -0.70710647     -0.00000000
 22ab          -0.08855304      0.00000000     -0.00000000      0.70153922
 22ba           0.08855304     -0.00000000      0.00000000     -0.70153922
 2202          -0.00100685     -0.00000000      0.00000000      0.00120668
 0222          -0.00092665      0.00000000     -0.00000000      0.00034018
 2022          -0.00092665     -0.00000000      0.00000000      0.00034018
 2ab2           0.00000000      0.00000000      0.00066259      0.00000000
 2ba2          -0.00000000     -0.00000000     -0.00066259     -0.00000000
 b2a2           0.00000000     -0.00066259      0.00000000     -0.00000000
 a2b2          -0.00000000      0.00066259     -0.00000000      0.00000000
 
 Energy:     -106.90987819   -106.79392997   -106.79392997   -106.77565332
 


 **********************************************************************************************************************************
 DATASETS  * FILE   NREC   LENGTH (MB)   RECORD NAMES
              1      20       37.13       500      610      700      900      950      970     1000      129      960     1100   
                                          VAR    BASINP    GEOM    SYMINP    ZMAT    AOBASIS   BASIS     P2S    ABASIS      S 
                                         1400     1410     1200     1210     1080     1600     1650     1300     1700     1380   
                                           T        V       H0       H01     AOSYM     SMH    MOLCAS    ERIS     OPER     JKOP   

              2       4        0.46       700     1000      520     2100   
                                         GEOM     BASIS   MCVARS     RHF  

              3       2        0.30      1000     2140   
                                         BASIS    MCSCF   

 PROGRAMS   *        TOTAL     MULTI    HF-SCF       INT
 CPU TIMES  *         0.76      0.30      0.14      0.25
 REAL TIME  *         1.23 SEC
 DISK USED  *        51.11 MB
 **********************************************************************************************************************************

 Dump information in style MOLDEN to lif_eq.mld                                                                      

 Molecular orbitals read from record     2140.3  Type=MCSCF/NATURAL (state averaged)
 Occupation numbers read from record     2140.3  Type=MCSCF/NATURAL (state averaged)
 Orbital energies read from record       2140.3  Type=MCSCF/NATURAL (state averaged)
 Redundancy group numbers read from rec  2140.3  Type=MCSCF/NATURAL (state averaged)

 DUMP ORBITAL  1.1 AS ORBITAL    1  occ=    2.0000  eig=  -26.4064  GROUP= 102
 DUMP ORBITAL  2.1 AS ORBITAL    2  occ=    2.0000  eig=   -2.4727  GROUP= 102
 DUMP ORBITAL  3.1 AS ORBITAL    3  occ=    2.0000  eig=   -1.6182  GROUP= 102
 DUMP ORBITAL  4.1 AS ORBITAL    4  occ=    1.7500  eig=   -0.6505  GROUP= 303
 DUMP ORBITAL  5.1 AS ORBITAL    5  occ=    1.7500  eig=   -0.6505  GROUP= 203
 DUMP ORBITAL  6.1 AS ORBITAL    6  occ=    1.7500  eig=   -0.6683  GROUP= 103
 DUMP ORBITAL  7.1 AS ORBITAL    7  occ=    0.7500  eig=   -0.0404  GROUP= 103

 Total charge:      12.000000

 **********************************************************************************************************************************

 MULTI/F=AVTZ,LI=VTZ energy=   -106.775653315854

           MULTI          HF-SCF
   -106.77565332   -106.98260473
 **********************************************************************************************************************************
 Molpro calculation terminated
