[Molden Format]
[Molpro variables]
_NUMVAR=  1023.000000000000    
_AVOGAD= 0.6022140760000000E+24
_BOLTZ= 0.1380649000000000E-22
_CLIGHTSI=  299792458.0000000    
_JOULE= 0.4359744722207100E-17
_JPCAL=  4.184000000000000    
_PLANCK= 0.6626070150000000E-33
_BOHR= 0.5291772109030000E-10
_ECHARG= 0.1602176634000000E-18
_ENULL= 0.8854187812800001E-11
_MU= 0.1660539066600000E-26
_EMASS= 0.9109383701500001E-30
_AMU2AU=  1822.888486217313    
_CLIGHT=  29979245800.00000    
_EV= 0.3674932217565494E-01
_KJOULE= 0.3808798847133432E-03
_KJOULE/MOL= 0.3808798847133432E-03
_CM= 0.4556335252912009E-05
_CM-1= 0.4556335252912009E-05
_DEB2SI= 0.3335640951981520E-29
_KCAL= 0.1593601437640628E-02
_KCAL/MOL= 0.1593601437640628E-02
_KELVIN= 0.3166811563455608E-05
_HERTZ= 0.1519829846057038E-15
_HZ= 0.1519829846057038E-15
_TOA= 0.5291772109030000    
_TOANG= 0.5291772109030000    
_TORAD= 0.1745329251994330E-01
_TOCM=  219474.6313631965    
_TODEBYE=  2.541746473194078    
_TOE= 0.4803204712570263E-09
_TOEV=  27.21138624598803    
_TOHERTZ=  6579683920501656.    
_TOHZ=  6579683920501656.    
_TOK=  315775.0248040668    
_TOKCAL=  627.5094740630558    
_TOKELVIN=  315775.0248040668    
_TOKJ=  2625.499639479825    
_TOKJOULE=  2625.499639479825    
_TOKG= 0.1660539066600000E-26
_ANG=  1.889726124625770    
_ANGSTROM=  1.889726124625770    
_RPAREF=  0.000000000000000    
_RPADISS=  0.000000000000000    
_IGNORE_UNDEF=  2.000000000000000    
_STRICTCHECK=  0.000000000000000    
!SEWARD=  0.000000000000000    
!MULTI=  0.000000000000000    
!DFMULTI=  0.000000000000000    
_SEW_ONEEL=  0.000000000000000    
_CPPDONE=FALSE
_DKROLL_DONE=  0.000000000000000    
_FNUC_DONE=  0.000000000000000    
_FOCKDONE=TRUE
_GRADONE=FALSE
_HESSDONE=FALSE
_INTDONE=TRUE
_SCFDONE=TRUE
_MODUL_BLOCK=FALSE
_MODUL_CUDA=FALSE
_MODUL_SLATER=FALSE
_MODUL_MRCC=FALSE
_MODUL_NBO6=FALSE
_MODUL_NECI=FALSE
_MODUL_AIMS=TRUE
_MODUL_GECCO=FALSE
_ISWINDOWS=FALSE
_MRCC_EXEC=
_FITC_AO_SAVED=FALSE
_FITC_MO_SAVED=FALSE
_SHARED_FS=TRUE
_LSTYP=SEWARD
_INTYP=INTS
_GEOMTYP=ZMAT
_GRADTYP=ALASKA
_DIRECT=FALSE
_DKHO= -1.000000000000000    
_FNUC=  0.000000000000000    
_SYNCM=  0.000000000000000    
_BASIS=F=AVTZ,LI=VTZ
_ZCENTRE=MASS
_ZUNIT=ANG
_ZORIENT=  0.000000000000000    
!ZORIENT=  0.000000000000000    
_NELEC=  12.00000000000000    
!SPIN=  0.000000000000000    
_QSDSTEP=  0.000000000000000    
_QSDIRC=  0.000000000000000    
_PROGRAM=MULTI
_CPUSTEP= 0.3000000000000000    
_SYSSTEP= 0.2000000000000002E-01
_WALLSTEP= 0.3500000000000000    
!DFSCF=  0.000000000000000    
!SCSGRD=  0.000000000000000    
_CPUTOT= 0.7600000000000000    
_DFTEXFAC=  1.000000000000000    
_DMX=-0.2376598233331197E-19
_DMY=-0.1142598787542813E-15
_DMZ= -2.699176037388172    
_DMX_SCF= 0.1329984534789462E-15
_DMY_SCF=-0.3703733652055049E-15
_DMZ_SCF= -2.576827023869027    
_HOMO=  6.100000000000000    
_EHOMO=-0.4740285942968366    
_LUMO=  7.100000000000000    
_ELUMO=-0.4759963903717398E-02
_ENERGY= -106.9098781880027    
_ENERGY_METHOD=MULTI
_ENERGY_BASIS=F=AVTZ,LI=VTZ
_GEOMETRY_METHOD=
_GEOMETRY_BASIS=
_ENERGY_AVRG= -106.8183478626113    
_ENUC=  9.022344464751832    
_GRADEXFAC=  9999.000000000000    
_GRADMETHOD=  4.000000000000000    
_NMRMETHOD=  0.000000000000000    
_NMRMAGNET=  0.000000000000000    
!GRID_FREEZE= -1.000000000000000    
!NEESE_INDEX=  0.000000000000000    
_ITERATIONS=  5.000000000000000    
_LASTNELEC=  6.000000000000000    
_LASTSPIN=  0.000000000000000    
_LASTSYM=  1.000000000000000    
_MPP_PROG=  0.000000000000000    
_MSNSTATES=  0.000000000000000    
_RS2PHASE=  0.000000000000000    
_IPROC_MPP=  0.000000000000000    
_IPROC_MPPX=  0.000000000000000    
_NPROC_MPP=  1.000000000000000    
_NPROC_MPPX=  1.000000000000000    
_NPROC_SMP=  1.000000000000000    
_NUMSTEP=  0.000000000000000    
_ORBITAL=  2140.300000000000    
_PI=  3.141592653589793    
!MCACT=  4.000000000000000    
!MCCLOSED=  3.000000000000000    
!MCFREEZE=  0.000000000000000    
!MCMS2=  0.000000000000000    
!MCNEL=  6.000000000000000    
!MCNSTSYM=  1.000000000000000    
!MCSTATE=  4.000000000000000    
!MCSYM=  1.000000000000000    
!MCWEIGHT= 0.2500000000000000    
_SEIG_MIN= 0.4859599628993988E-03
_SEWPROP=TRUE
_STATUS=  1.000000000000000    
_SYSTOT= 0.4000000000000000    
_VERSION=  2022002.000000000    
_WALLTOT=  1.230000000000000    
_DATE=11-Sep-23
_LASTORB=MCSCF
_OUTPUT=/home/andres/PycharmProjects/PyXSCAT/src/EQ-Minimal/lif_eq.out
_PGROUP=C1
_TIME=16:53:00
_LIBMOL=/usr/local/molpro/molpro_2022.2/lib/
_VIGRDC=  0.000000000000000    
!VIBCNT=  0.000000000000000    
!RGHFCNT=  0.000000000000000    
!SURFREC=  0.000000000000000    
!XSURFREC=  0.000000000000000    
!XPOLYREC=  0.000000000000000    
!ROTREC=  0.000000000000000    
!POLYREC=  0.000000000000000    
!DIPREC=  0.000000000000000    
!DIP4DREC=  0.000000000000000    
!DIPROT=  0.000000000000000    
!DIP4DROT=  0.000000000000000    
!PTREC=  0.000000000000000    
!PT4DREC=  0.000000000000000    
!VSCFREC=  0.000000000000000    
!VCIREC=  0.000000000000000    
!PVCIREC=  0.000000000000000    
!VMP2REC=  0.000000000000000    
!VMCSCFREC=  0.000000000000000    
!VMRCIREC=  0.000000000000000    
!VIBSTATEREC=  0.000000000000000    
!VIBSTATECNT=  0.000000000000000    
!VIBINFO=  0.000000000000000    
!GAREC=  0.000000000000000    
!SCFORB=  21002.00000000000    
!MCORB=  21403.00000000000    
!DEFCORE=  2.000000000000000    
!SCORE=  0.000000000000000    
!NEWMOL= -1.000000000000000    
!NEWSYM= -1.000000000000000    
_SLFILES=slscratch
_NGSSTO=  9.000000000000000    
_SIN=SIN
_COS=COS
_TAN=TAN
_ACOS=ACOS
_ASIN=ASIN
_ATAN=ATAN
_COSH=COSH
_SINH=SINH
_TANH=TANH
_ABS=ABS
_MOD=MOD
_ERF=ERF
_REFC=REFC
_ERFC=ERFC
_HYPOT=HYPOT
_J0=J0
_J1=J1
_JN=JN
_GAMMA=GAMMA
_LGAMMA=LGAMMA
_Y0=Y0
_Y1=Y1
_YN=YN
_EXP=EXP
_LOG=LOG
_LOG10=LOG10
_SQRT=SQRT
_INT=INT
_NINT=NINT
_MAX=MAX
_MIN=MIN
_COSMO=  0.000000000000000    
_COSMOIT=  0.000000000000000    
_COSMOES=  0.000000000000000    
_COSMOEDS=  0.000000000000000    
_COSMOEC=  0.000000000000000    
_COSMOEDCORR=  0.000000000000000    
_FEPSI=  1.000000000000000    
_SL_IsMM=  0.000000000000000    
_SL_NSYM=  1.000000000000000    
_SL_System_BitSw=  0.000000000000000    
_SL_Unique_atoms=  0.000000000000000    
_SL_GRAD=  0.000000000000000    
_SL_MAXUPD_Hess=  5.000000000000000    
_SL_N_PRINT_COD=  5.000000000000000    
_SL_PRINT_CODES=  0.000000000000000    
_SL_BasType=  0.000000000000000    
_SL_Energy_Pred=  0.000000000000000    
_SL_New_Coords=  0.000000000000000    
_SL_Total_Nuclea=  0.000000000000000    
_SL_Highest_Mltp=  0.000000000000000    
_SL_Ref_Geom=  0.000000000000000    
_SL_Symmetry_ope=  1.000000000000000    
_SL_agrad=  0.000000000000000    
_SL_GrdMax=  0.000000000000000    
_SL_GrdNorm=  0.000000000000000    
_SL_GrdRMS=  0.000000000000000    
_SL_Hss_Q=  0.000000000000000    
_SL_Hss_X=  0.000000000000000    
_SL_BMxOld=  0.000000000000000    
_SL_KtB=  0.000000000000000    
_SL_TROld=  0.000000000000000    
_SL_No_of_Intern=  0.000000000000000    
_SL_Hess=  0.000000000000000    
_SL_K=  0.000000000000000    
!LATTICE= -1.000000000000000    
!NEWLATTICE=  0.000000000000000    
!LATGRAD_VAR=FALSE
!SEW_LATTICE=  1.000000000000000    
!AIC_ONEEL=  0.000000000000000    
!LOCAL=  0.000000000000000    
!SAVEDOM= -1.000000000000000    
!RESTDOM= -1.000000000000000    
!SAVEDOM_HF= -1.000000000000000    
!RESTDOM_HF= -1.000000000000000    
!HESSREC=  0.000000000000000    
!FREQREC=  0.000000000000000    
!NMODREC=  0.000000000000000    
!GTASKS=  0.000000000000000    
!HTASKS=  0.000000000000000    
!SAVEDOM_EOM= -1.000000000000000    
!RESTDOM_EOM= -1.000000000000000    
!GRADSTATE= -1.000000000000000    
!DEBUG=  0.000000000000000    
!CFIT_CPHF=  0.000000000000000    
!RDOMAUX_CPHF=  0.000000000000000    
!THRAO_CPHF= 0.1000000000000000E-11
!THRMO_CPHF= 0.1000000000000000E-11
!THROV_CPHF= 0.1000000000000000E-11
!THRSW_CPHF= 0.1000000000000000E-11
!THRPROD_CPHF= 0.1000000000000000E-11
!THRAOPR_CPHF= 0.1000000000000000E-11
!CFIT_SCFGRD=  0.000000000000000    
!RDOMAUX_SCFGRD=  0.000000000000000    
!THRAO_SCFGRD= 0.1000000000000000E-11
!THRMO_SCFGRD= 0.1000000000000000E-11
!THROV_SCFGRD= 0.1000000000000000E-11
!THRSW_SCFGRD= 0.1000000000000000E-11
!THRPROD_SCFGRD= 0.1000000000000000E-11
!THRAOPR_SCFGRD= 0.1000000000000000E-11
!LOCFIT_SCF=  0.000000000000000    
!LOCFIT_MP2=  0.000000000000000    
_RIDOM=  0.000000000000000    
!CC2_METHOD=  0.000000000000000    
_BASIS2006=FALSE
_SVDDEL= -1.000000000000000    
_SVDDELA= -1.000000000000000    
_SVDDELP= -1.000000000000000    
_SVDDELF= -1.000000000000000    
_SVDDELS= -1.000000000000000    
_SVDDEL_ABS= -1.000000000000000    
_SVDDELA_ABS= -1.000000000000000    
_SVDDELP_ABS= -1.000000000000000    
_SVDDELF_ABS= -1.000000000000000    
_SVDDELS_ABS= -1.000000000000000    
_MAXBASIS=  0.000000000000000    
!OPT_CONICAL=  0.000000000000000    
!CLEARSP_JGRID=  0.000000000000000    
_GRDHYBR=  0.000000000000000    
_STATEGRAD=  1.000000000000000    
_4EXT_NDISKS=  1.000000000000000    
!EMBEDFLAG=  1.000000000000000    
!EMBED=FALSE
!EMBED_F12=FALSE
!EMBEDNUC=  0.000000000000000    
_EMBEDENERGY=  0.000000000000000    
!EMBED_DFC=FALSE
!NUM_VOIDS=  0.000000000000000    
_IBODY=  0.000000000000000    
_EMBE_CORR=  0.000000000000000    
!EMBED_PROJ=FALSE
!EMB_PROJ_ZMU=  1000000.000000000    
!CORRECTION_HF=  0.000000000000000    
!EMBED_AORB=  0.000000000000000    
!EMBED_NACORR=  0.000000000000000    
!EMBED_MP2=FALSE
!EMBED_TRUNC_PERTURBATION=FALSE
!EMBED_FROZEN=  0.000000000000000    
!EMBED_ACTIVE=  0.000000000000000    
_CHANGE_BASIS=FALSE
_RESTORE_BASIS=FALSE
_FIX_EMBED_GUESS=FALSE
_EMBED_SCF=FALSE
_HUZINAGA_T=FALSE
_HUZINAGA_F=FALSE
_HUZINAGA=FALSE
_HUZINAGA_CORRECT=FALSE
!FASTLATGRAD=  1.000000000000000    
!FASTVLAMBDA= -1.000000000000000    
!IFORCE= -1.000000000000000    
!USESYM= -1.000000000000000    
_SINDEX=  0.000000000000000    
_AVDOM_OSV=  0.000000000000000    
_AVDOM_PNO=  0.000000000000000    
_AVDOM_PAO=  0.000000000000000    
_AVDOM_LMO=  0.000000000000000    
_CC2OSV_FLAG=  0.000000000000000    
_EOMCCSD_CONV=FALSE
_TMADC2_FLAG=FALSE
_PROPADC2_FLAG=FALSE
_LEN_VirQ=  0.000000000000000    
_GRDCC2LR_FLAG=FALSE
_GRDADC2_FLAG=FALSE
_DMX_CC=-0.1422934016410948E-20
_DMY_CC=-0.1422934016410948E-20
_DMZ_CC= -2.900233445356141    
_DMX_NUC=  0.000000000000000    
_DMY_NUC=  0.000000000000000    
_DMZ_NUC=  8.977710872873999    
_RO_VGLOBAL=  0.000000000000000    
_OPT=FALSE
_FREQ=FALSE
_HESS=FALSE
_CMRCC_callName=EMPTY
_CMRCC_callCount=  0.000000000000000    
_GECCO_CIROOT=  1.000000000000000    
_SYM_CATION=  1.000000000000000    
_MON_A=FALSE
_MON_B=FALSE
GEOMTYP=XYZ
GX1=  0.000000000000000    
GY1=  0.000000000000000    
GZ1=-0.7917999999999999    
GX2=  0.000000000000000    
GY2=  0.000000000000000    
GZ2= 0.7917999999999999    
_TRDMX= 0.2703558725260286E-33
_TRDMY=-0.2239179070415282    
_TRDMZ= 0.1242312425223934E-12
[Atoms] Angs
LI    1    3         0.0000000000        0.0000000000       -0.7918000000
F     2    9         0.0000000000        0.0000000000        0.7918000000
[GTO]
   1 0
 s   11  1.00
  0.5988000000D+04  0.1329999901D-03
  0.8989000000D+03  0.1024999924D-02
  0.2059000000D+03  0.5271999607D-02
  0.5924000000D+02  0.2092899844D-01
  0.1987000000D+02  0.6633999506D-01
  0.7406000000D+01  0.1657749877D+00
  0.2930000000D+01  0.3150379765D+00
  0.1189000000D+01  0.3935229707D+00
  0.4798000000D+00  0.1908699858D+00
  0.7509000000D-01  0.5413999597D-02
  0.2832000000D-01 -0.1327999901D-02
 s   11  1.00
  0.5988000000D+04 -0.2100000605D-04
  0.8989000000D+03 -0.1610000464D-03
  0.2059000000D+03 -0.8200002362D-03
  0.5924000000D+02 -0.3326000958D-02
  0.1987000000D+02 -0.1051900303D-01
  0.7406000000D+01 -0.2809700809D-01
  0.2930000000D+01 -0.5593601611D-01
  0.1189000000D+01 -0.9923702859D-01
  0.4798000000D+00 -0.1121890323D+00
  0.7509000000D-01  0.5678891636D+00
  0.2832000000D-01  0.5303821528D+00
 s   11  1.00
  0.5988000000D+04  0.0000000000D+00
  0.8989000000D+03  0.0000000000D+00
  0.2059000000D+03  0.0000000000D+00
  0.5924000000D+02  0.0000000000D+00
  0.1987000000D+02  0.0000000000D+00
  0.7406000000D+01  0.0000000000D+00
  0.2930000000D+01  0.0000000000D+00
  0.1189000000D+01  0.0000000000D+00
  0.4798000000D+00  0.0000000000D+00
  0.7509000000D-01  0.1000000000D+01
  0.2832000000D-01  0.0000000000D+00
 s   11  1.00
  0.5988000000D+04  0.0000000000D+00
  0.8989000000D+03  0.0000000000D+00
  0.2059000000D+03  0.0000000000D+00
  0.5924000000D+02  0.0000000000D+00
  0.1987000000D+02  0.0000000000D+00
  0.7406000000D+01  0.0000000000D+00
  0.2930000000D+01  0.0000000000D+00
  0.1189000000D+01  0.0000000000D+00
  0.4798000000D+00  0.0000000000D+00
  0.7509000000D-01  0.0000000000D+00
  0.2832000000D-01  0.1000000000D+01
 p    5  1.00
  0.3266000000D+01  0.8630004765D-02
  0.6511000000D+00  0.4753802625D-01
  0.1696000000D+00  0.2097721158D+00
  0.5578000000D-01  0.5285222918D+00
  0.2050000000D-01  0.3827442113D+00
 p    5  1.00
  0.3266000000D+01  0.0000000000D+00
  0.6511000000D+00  0.0000000000D+00
  0.1696000000D+00  0.0000000000D+00
  0.5578000000D-01  0.1000000000D+01
  0.2050000000D-01  0.0000000000D+00
 p    5  1.00
  0.3266000000D+01  0.0000000000D+00
  0.6511000000D+00  0.0000000000D+00
  0.1696000000D+00  0.0000000000D+00
  0.5578000000D-01  0.0000000000D+00
  0.2050000000D-01  0.1000000000D+01
 d    1  1.00
  0.1900000000D+00  0.1000000000D+01
 d    1  1.00
  0.7250000000D-01  0.1000000000D+01
 f    1  1.00
  0.1270000000D+00  0.1000000000D+01
  
   2 0
 s   10  1.00
  0.1950000000D+05  0.5070001688D-03
  0.2923000000D+04  0.3923001306D-02
  0.6645000000D+03  0.2020000673D-01
  0.1875000000D+03  0.7901002631D-01
  0.6062000000D+02  0.2304390767D+00
  0.2142000000D+02  0.4328721441D+00
  0.7950000000D+01  0.3499641165D+00
  0.2257000000D+01  0.4323301440D-01
  0.8815000000D+00 -0.7892002628D-02
  0.3041000000D+00  0.2384000794D-02
 s   10  1.00
  0.1950000000D+05 -0.1169999533D-03
  0.2923000000D+04 -0.9119996360D-03
  0.6645000000D+03 -0.4716998117D-02
  0.1875000000D+03 -0.1908599238D-01
  0.6062000000D+02 -0.5965497619D-01
  0.2142000000D+02 -0.1400099441D+00
  0.7950000000D+01 -0.1767819294D+00
  0.2257000000D+01  0.1716249315D+00
  0.8815000000D+00  0.6050427585D+00
  0.3041000000D+00  0.3695118525D+00
 s   10  1.00
  0.1950000000D+05  0.0000000000D+00
  0.2923000000D+04  0.0000000000D+00
  0.6645000000D+03  0.0000000000D+00
  0.1875000000D+03  0.0000000000D+00
  0.6062000000D+02  0.0000000000D+00
  0.2142000000D+02  0.0000000000D+00
  0.7950000000D+01  0.0000000000D+00
  0.2257000000D+01  0.1000000000D+01
  0.8815000000D+00  0.0000000000D+00
  0.3041000000D+00  0.0000000000D+00
 s   10  1.00
  0.1950000000D+05  0.0000000000D+00
  0.2923000000D+04  0.0000000000D+00
  0.6645000000D+03  0.0000000000D+00
  0.1875000000D+03  0.0000000000D+00
  0.6062000000D+02  0.0000000000D+00
  0.2142000000D+02  0.0000000000D+00
  0.7950000000D+01  0.0000000000D+00
  0.2257000000D+01  0.0000000000D+00
  0.8815000000D+00  0.0000000000D+00
  0.3041000000D+00  0.1000000000D+01
 s    1  1.00
  0.9158000000D-01  0.1000000000D+01
 p    5  1.00
  0.4388000000D+02  0.1666500251D-01
  0.9926000000D+01  0.1044720157D+00
  0.2930000000D+01  0.3172600478D+00
  0.9132000000D+00  0.4873430734D+00
  0.2672000000D+00  0.3346040504D+00
 p    5  1.00
  0.4388000000D+02  0.0000000000D+00
  0.9926000000D+01  0.0000000000D+00
  0.2930000000D+01  0.0000000000D+00
  0.9132000000D+00  0.1000000000D+01
  0.2672000000D+00  0.0000000000D+00
 p    5  1.00
  0.4388000000D+02  0.0000000000D+00
  0.9926000000D+01  0.0000000000D+00
  0.2930000000D+01  0.0000000000D+00
  0.9132000000D+00  0.0000000000D+00
  0.2672000000D+00  0.1000000000D+01
 p    1  1.00
  0.7361000000D-01  0.1000000000D+01
 d    1  1.00
  0.3107000000D+01  0.1000000000D+01
 d    1  1.00
  0.8550000000D+00  0.1000000000D+01
 d    1  1.00
  0.2920000000D+00  0.1000000000D+01
 f    1  1.00
  0.1917000000D+01  0.1000000000D+01
 f    1  1.00
  0.7240000000D+00  0.1000000000D+01


[MO]
 Sym=      1.1
 Ene=     -26.4064
 Spin= Alpha
 Occup=    2.000000
1 0.000584190913949
2 0.002689737657162
3 -0.001381187383555
4 -0.001159699623281
5 0.0
6 0.0
7 -0.003095545306075
8 0.0
9 0.0
10 0.001951528867258
11 0.0
12 0.0
13 0.001130375796860
14 0.000223868495598
15 0.000223868495598
16 -0.000447736991195
17 0.0
18 0.0
19 0.0
20 0.000059160353333
21 0.000059160353333
22 -0.000118320706666
23 0.0
24 0.0
25 0.0
26 0.0
27 0.0
28 -0.000260961319820
29 0.0
30 0.0
31 0.000175058175185
32 0.0
33 0.0
34 0.000175058175185
35 0.0
36 0.99918733208228
37 -0.002229468297487
38 0.000742618459289
39 0.003683969776066
40 -0.001806086375422
41 0.0
42 0.0
43 -0.000497126758303
44 0.0
45 0.0
46 0.000411015024810
47 0.0
48 0.0
49 -0.000451957246879
50 0.0
51 0.0
52 0.000622046183437
53 0.000000541116148
54 0.000000541116148
55 -0.000001082232296
56 0.0
57 0.0
58 0.0
59 -0.000020458107908
60 -0.000020458107908
61 0.000040916215817
62 0.0
63 0.0
64 0.0
65 -0.000049120315209
66 -0.000049120315209
67 0.000098240630418
68 0.0
69 0.0
70 0.0
71 0.0
72 0.0
73 0.000032537940000
74 0.0
75 0.0
76 -0.000021827113706
77 0.0
78 0.0
79 -0.000021827113706
80 0.0
81 0.0
82 0.0
83 -0.000091760058687
84 0.0
85 0.0
86 0.000061554518653
87 0.0
88 0.0
89 0.000061554518653
90 0.0
 Sym=      2.1
 Ene=      -2.4727
 Spin= Alpha
 Occup=    2.000000
1 0.99753600796439
2 0.001157148022939
3 0.003498339314301
4 0.000055891437842
5 0.0
6 0.0
7 0.000539837782247
8 0.0
9 0.0
10 0.002832650645399
11 0.0
12 0.0
13 -0.000812365962400
14 -0.000114118650189
15 -0.000114118650189
16 0.000228237300378
17 0.0
18 0.0
19 0.0
20 -0.000636147700900
21 -0.000636147700900
22 0.001272295401800
23 0.0
24 0.0
25 0.0
26 0.0
27 0.0
28 0.000480317381435
29 0.0
30 0.0
31 -0.000322206694699
32 0.0
33 0.0
34 -0.000322206694699
35 0.0
36 -0.000592106915400
37 0.029132208373472
38 -0.000304260765978
39 -0.000598607786543
40 -0.006122332687808
41 0.0
42 0.0
43 -0.009840410385812
44 0.0
45 0.0
46 -0.000692464755937
47 0.0
48 0.0
49 0.001097718259764
50 0.0
51 0.0
52 0.001380697015639
53 -0.000174984189528
54 -0.000174984189528
55 0.000349968379057
56 0.0
57 0.0
58 0.0
59 -0.000858161686564
60 -0.000858161686564
61 0.001716323373127
62 0.0
63 0.0
64 0.0
65 -0.000377129001840
66 -0.000377129001840
67 0.000754258003680
68 0.0
69 0.0
70 0.0
71 0.0
72 0.0
73 -0.000177345514408
74 0.0
75 0.0
76 0.000118966987716
77 0.0
78 0.0
79 0.000118966987716
80 0.0
81 0.0
82 0.0
83 -0.000740307328215
84 0.0
85 0.0
86 0.000496613253039
87 0.0
88 0.0
89 0.000496613253039
90 0.0
 Sym=      3.1
 Ene=      -1.6182
 Spin= Alpha
 Occup=    2.000000
1 -0.051550055963289
2 0.10700166852046
3 -0.022279804573983
4 -0.055203424843057
5 0.0
6 0.0
7 0.070881997115611
8 0.0
9 0.0
10 -0.018096603710008
11 0.0
12 0.0
13 -0.030602131583525
14 -0.003715608297887
15 -0.003715608297887
16 0.007431216595774
17 0.0
18 0.0
19 0.0
20 -0.002601491411130
21 -0.002601491411130
22 0.005202982822261
23 0.0
24 0.0
25 0.0
26 0.0
27 0.0
28 0.003259734618965
29 0.0
30 0.0
31 -0.002186696458985
32 0.0
33 0.0
34 -0.002186696458985
35 0.0
36 -0.001149531854487
37 0.98796794812827
38 -0.001445828604030
39 0.003153481295878
40 -0.035395894760392
41 0.0
42 0.0
43 -0.023614429742686
44 0.0
45 0.0
46 -0.004774258025058
47 0.0
48 0.0
49 -0.007107378956825
50 0.0
51 0.0
52 0.010815008874754
53 -0.000050004361380
54 -0.000050004361380
55 0.000100008722760
56 0.0
57 0.0
58 0.0
59 -0.001975774471974
60 -0.001975774471974
61 0.003951548943948
62 0.0
63 0.0
64 0.0
65 -0.002900691499140
66 -0.002900691499140
67 0.005801382998281
68 0.0
69 0.0
70 0.0
71 0.0
72 0.0
73 0.000476034680054
74 0.0
75 0.0
76 -0.000319333771274
77 0.0
78 0.0
79 -0.000319333771274
80 0.0
81 0.0
82 0.0
83 -0.003395714599490
84 0.0
85 0.0
86 0.002277914602994
87 0.0
88 0.0
89 0.002277914602994
90 0.0
 Sym=      4.1
 Ene=      -0.6505
 Spin= Alpha
 Occup=    1.750000
1 0.0
2 0.0
3 0.0
4 0.0
5 0.0
6 0.070383352205722
7 0.0
8 0.0
9 -0.048946056495343
10 0.0
11 0.0
12 -0.023940882367532
13 0.0
14 0.0
15 0.0
16 0.0
17 0.0
18 0.0
19 -0.000175495905260
20 0.0
21 0.0
22 0.0
23 0.0
24 0.0
25 -0.005353385677375
26 0.0
27 0.003824307007953
28 0.0
29 0.0
30 0.001710282087322
31 0.0
32 0.0
33 -0.006841128349289
34 0.0
35 0.0
36 0.0
37 0.0
38 0.0
39 0.0
40 0.0
41 0.0
42 0.97367971101753
43 0.0
44 0.0
45 0.004306371865818
46 0.0
47 0.0
48 0.018867658687097
49 0.0
50 0.0
51 0.029939284868134
52 0.0
53 0.0
54 0.0
55 0.0
56 0.0
57 0.0
58 -0.001049870357823
59 0.0
60 0.0
61 0.0
62 0.0
63 0.0
64 -0.005973390645976
65 0.0
66 0.0
67 0.0
68 0.0
69 0.0
70 -0.017276257552223
71 0.0
72 0.000330362076454
73 0.0
74 0.0
75 0.000147742412028
76 0.0
77 0.0
78 -0.000590969648111
79 0.0
80 0.0
81 0.0
82 -0.003425819895980
83 0.0
84 0.0
85 -0.001532073233216
86 0.0
87 0.0
88 0.006128292932866
89 0.0
90 0.0
 Sym=      5.1
 Ene=      -0.6505
 Spin= Alpha
 Occup=    1.750000
1 0.0
2 0.0
3 0.0
4 0.0
5 0.070383352205713
6 0.0
7 0.0
8 -0.048946056495337
9 0.0
10 0.0
11 -0.023940882367529
12 0.0
13 0.0
14 0.0
15 0.0
16 0.0
17 0.0
18 -0.000175495905261
19 0.0
20 0.0
21 0.0
22 0.0
23 0.0
24 -0.005353385677376
25 0.0
26 0.003824307007955
27 0.0
28 0.0
29 0.001710282087323
30 0.0
31 0.0
32 -0.006841128349294
33 0.0
34 0.0
35 0.0
36 0.0
37 0.0
38 0.0
39 0.0
40 0.0
41 0.97367971101753
42 0.0
43 0.0
44 0.004306371865817
45 0.0
46 0.0
47 0.018867658687100
48 0.0
49 0.0
50 0.029939284868134
51 0.0
52 0.0
53 0.0
54 0.0
55 0.0
56 0.0
57 -0.001049870357823
58 0.0
59 0.0
60 0.0
61 0.0
62 0.0
63 -0.005973390645976
64 0.0
65 0.0
66 0.0
67 0.0
68 0.0
69 -0.017276257552222
70 0.0
71 0.000330362076454
72 0.0
73 0.0
74 0.000147742412028
75 0.0
76 0.0
77 -0.000590969648111
78 0.0
79 0.0
80 0.0
81 -0.003425819895980
82 0.0
83 0.0
84 -0.001532073233216
85 0.0
86 0.0
87 0.006128292932866
88 0.0
89 0.0
90 0.0
 Sym=      6.1
 Ene=      -0.6683
 Spin= Alpha
 Occup=    1.749999
1 0.025112282634871
2 -0.35716726635028
3 0.099069660208267
4 0.19547306812567
5 0.0
6 0.0
7 -0.32507064886852
8 0.0
9 0.0
10 0.12164843513931
11 0.0
12 0.0
13 0.13189211018986
14 0.017016182960894
15 0.017016182960894
16 -0.034032365921787
17 0.0
18 0.0
19 0.0
20 0.009100134109927
21 0.009100134109927
22 -0.018200268219853
23 0.0
24 0.0
25 0.0
26 0.0
27 0.0
28 -0.018636974974027
29 0.0
30 0.0
31 0.012502062881066
32 0.0
33 0.0
34 0.012502062881066
35 0.0
36 0.000916774722425
37 0.052095754433184
38 0.002064856786436
39 0.031157047209774
40 0.097619054975037
41 0.0
42 0.0
43 0.96957412804966
44 0.0
45 0.0
46 0.007642116925542
47 0.0
48 0.0
49 -0.002715934978936
50 0.0
51 0.0
52 0.005942328755975
53 0.000600198271678
54 0.000600198271678
55 -0.001200396543356
56 0.0
57 0.0
58 0.0
59 0.004099543165466
60 0.004099543165466
61 -0.008199086330932
62 0.0
63 0.0
64 0.0
65 0.009422504237892
66 0.009422504237892
67 -0.018845008475784
68 0.0
69 0.0
70 0.0
71 0.0
72 0.0
73 -0.000937510685117
74 0.0
75 0.0
76 0.000628901286466
77 0.0
78 0.0
79 0.000628901286466
80 0.0
81 0.0
82 0.0
83 0.007932160125366
84 0.0
85 0.0
86 -0.005321054774620
87 0.0
88 0.0
89 -0.005321054774620
90 0.0
 Sym=      7.1
 Ene=      -0.0404
 Spin= Alpha
 Occup=    0.750002
1 0.006465595550078
2 0.85717473405133
3 -0.039251471026398
4 0.19229021086271
5 0.0
6 0.0
7 -0.47058636196996
8 0.0
9 0.0
10 0.096932034450553
11 0.0
12 0.0
13 0.14210768947175
14 0.004171575404673
15 0.004171575404673
16 -0.008343150809346
17 0.0
18 0.0
19 0.0
20 0.006028331786163
21 0.006028331786163
22 -0.012056663572326
23 0.0
24 0.0
25 0.0
26 0.0
27 0.0
28 -0.002442080375970
29 0.0
30 0.0
31 0.001638197318156
32 0.0
33 0.0
34 0.001638197318156
35 0.0
36 -0.001475138127491
37 -0.072447093195806
38 -0.001263646578954
39 -0.045243930293665
40 -0.059296414822058
41 0.0
42 0.0
43 0.031233832609980
44 0.0
45 0.0
46 0.000993964512754
47 0.0
48 0.0
49 0.012331417514979
50 0.0
51 0.0
52 0.005063712754495
53 0.000131555478792
54 0.000131555478792
55 -0.000263110957584
56 0.0
57 0.0
58 0.0
59 0.001201889568586
60 0.001201889568586
61 -0.002403779137171
62 0.0
63 0.0
64 0.0
65 0.001852207910808
66 0.001852207910808
67 -0.003704415821617
68 0.0
69 0.0
70 0.0
71 0.0
72 0.0
73 -0.000075063751943
74 0.0
75 0.0
76 0.000050354295597
77 0.0
78 0.0
79 0.000050354295597
80 0.0
81 0.0
82 0.0
83 0.001703636168459
84 0.0
85 0.0
86 -0.001142833884480
87 0.0
88 0.0
89 -0.001142833884480
90 0.0
 Sym=      8.1
 Ene=       0.0366
 Spin= Alpha
 Occup=    0.000000
1 0.0
2 0.0
3 0.0
4 0.0
5 0.0
6 0.36030082014826
7 0.0
8 0.0
9 -0.32817484323705
10 0.0
11 0.0
12 0.95663239999893
13 0.0
14 0.0
15 0.0
16 0.0
17 0.0
18 0.0
19 -0.014069851847203
20 0.0
21 0.0
22 0.0
23 0.0
24 0.0
25 -0.002472311706445
26 0.0
27 0.007657717227944
28 0.0
29 0.0
30 0.003424635254831
31 0.0
32 0.0
33 -0.013698541019322
34 0.0
35 0.0
36 0.0
37 0.0
38 0.0
39 0.0
40 0.0
41 0.0
42 -0.070426499133074
43 0.0
44 0.0
45 -0.003928789529858
46 0.0
47 0.0
48 0.004297311715128
49 0.0
50 0.0
51 -0.038080106841080
52 0.0
53 0.0
54 0.0
55 0.0
56 0.0
57 0.0
58 -0.000387571784321
59 0.0
60 0.0
61 0.0
62 0.0
63 0.0
64 0.000583464346465
65 0.0
66 0.0
67 0.0
68 0.0
69 0.0
70 -0.006017157952001
71 0.0
72 -0.000140370233971
73 0.0
74 0.0
75 -0.000062775477035
76 0.0
77 0.0
78 0.000251101908142
79 0.0
80 0.0
81 0.0
82 0.000425513528798
83 0.0
84 0.0
85 0.000190295435148
86 0.0
87 0.0
88 -0.000761181740591
89 0.0
90 0.0
 Sym=      9.1
 Ene=       0.0366
 Spin= Alpha
 Occup=    0.000000
1 0.0
2 0.0
3 0.0
4 0.0
5 0.36030082014824
6 0.0
7 0.0
8 -0.32817484323703
9 0.0
10 0.0
11 0.95663239999893
12 0.0
13 0.0
14 0.0
15 0.0
16 0.0
17 0.0
18 -0.014069851847203
19 0.0
20 0.0
21 0.0
22 0.0
23 0.0
24 -0.002472311706438
25 0.0
26 0.007657717227942
27 0.0
28 0.0
29 0.003424635254830
30 0.0
31 0.0
32 -0.013698541019319
33 0.0
34 0.0
35 0.0
36 0.0
37 0.0
38 0.0
39 0.0
40 0.0
41 -0.070426499133074
42 0.0
43 0.0
44 -0.003928789529857
45 0.0
46 0.0
47 0.004297311715127
48 0.0
49 0.0
50 -0.038080106841090
51 0.0
52 0.0
53 0.0
54 0.0
55 0.0
56 0.0
57 -0.000387571784321
58 0.0
59 0.0
60 0.0
61 0.0
62 0.0
63 0.000583464346465
64 0.0
65 0.0
66 0.0
67 0.0
68 0.0
69 -0.006017157952000
70 0.0
71 -0.000140370233971
72 0.0
73 0.0
74 -0.000062775477035
75 0.0
76 0.0
77 0.000251101908142
78 0.0
79 0.0
80 0.0
81 0.000425513528798
82 0.0
83 0.0
84 0.000190295435148
85 0.0
86 0.0
87 -0.000761181740590
88 0.0
89 0.0
90 0.0
 Sym=     10.1
 Ene=       0.0422
 Spin= Alpha
 Occup=    0.000000
1 -0.017147589257054
2 -0.065028059045623
3 -0.93277590293269
4 0.44109868316052
5 0.0
6 0.0
7 -0.19142656350939
8 0.0
9 0.0
10 -0.64388413680005
11 0.0
12 0.0
13 1.44717583073654
14 0.026767262079308
15 0.026767262079308
16 -0.053534524158616
17 0.0
18 0.0
19 0.0
20 0.044201159854652
21 0.044201159854652
22 -0.088402319709303
23 0.0
24 0.0
25 0.0
26 0.0
27 0.0
28 -0.015020110915588
29 0.0
30 0.0
31 0.010075796711053
32 0.0
33 0.0
34 0.010075796711053
35 0.0
36 -0.003112850709973
37 -0.073687631543084
38 -0.000603183277193
39 -0.036570729436246
40 0.72576913085130
41 0.0
42 0.0
43 -0.023188946586775
44 0.0
45 0.0
46 0.007714036777917
47 0.0
48 0.0
49 -0.053526895934414
50 0.0
51 0.0
52 -0.39341960110416
53 -0.000216428714902
54 -0.000216428714902
55 0.000432857429805
56 0.0
57 0.0
58 0.0
59 0.002378189504265
60 0.002378189504265
61 -0.004756379008529
62 0.0
63 0.0
64 0.0
65 -0.013101173858543
66 -0.013101173858543
67 0.026202347717086
68 0.0
69 0.0
70 0.0
71 0.0
72 0.0
73 0.000678798262303
74 0.0
75 0.0
76 -0.000455351717256
77 0.0
78 0.0
79 -0.000455351717256
80 0.0
81 0.0
82 0.0
83 -0.002439108103422
84 0.0
85 0.0
86 0.001636203457116
87 0.0
88 0.0
89 0.001636203457116
90 0.0
 Sym=     11.1
 Ene=       0.1157
 Spin= Alpha
 Occup=    0.000000
1 -0.011552023966717
2 -0.54442572919788
3 1.24681800223125
4 2.07320054049794
5 0.0
6 0.0
7 0.82790571121262
8 0.0
9 0.0
10 2.44642106046165
11 0.0
12 0.0
13 -1.32123866231886
14 -0.012861856526711
15 -0.012861856526711
16 0.025723713053421
17 0.0
18 0.0
19 0.0
20 -0.36578147864493
21 -0.36578147864493
22 0.73156295728987
23 0.0
24 0.0
25 0.0
26 0.0
27 0.0
28 0.12393045448032
29 0.0
30 0.0
31 -0.083135076210133
32 0.0
33 0.0
34 -0.083135076210133
35 0.0
36 -0.018433369015429
37 -0.10877901227196
38 0.007440723426694
39 0.13740330421945
40 -3.37643558888848
41 0.0
42 0.0
43 -0.038860136096478
44 0.0
45 0.0
46 -0.004853025772428
47 0.0
48 0.0
49 0.044248335480072
50 0.0
51 0.0
52 0.58447606775337
53 -0.000212826340237
54 -0.000212826340237
55 0.000425652680474
56 0.0
57 0.0
58 0.0
59 0.001191411229883
60 0.001191411229883
61 -0.002382822459766
62 0.0
63 0.0
64 0.0
65 0.001117850351862
66 0.001117850351862
67 -0.002235700703724
68 0.0
69 0.0
70 0.0
71 0.0
72 0.0
73 -0.001621534229590
74 0.0
75 0.0
76 0.001087758229562
77 0.0
78 0.0
79 0.001087758229562
80 0.0
81 0.0
82 0.0
83 0.005042830424176
84 0.0
85 0.0
86 -0.003382833488239
87 0.0
88 0.0
89 -0.003382833488239
90 0.0
 Sym=     12.1
 Ene=       0.1370
 Spin= Alpha
 Occup=    0.000000
1 0.0
2 0.0
3 0.0
4 0.0
5 0.0
6 0.46848451816547
7 0.0
8 0.0
9 1.44303775275657
10 0.0
11 0.0
12 -1.18777198751139
13 0.0
14 0.0
15 0.0
16 0.0
17 0.0
18 0.0
19 0.048198303596642
20 0.0
21 0.0
22 0.0
23 0.0
24 0.0
25 0.056022753508229
26 0.0
27 -0.034980333155515
28 0.0
29 0.0
30 -0.015643680562264
31 0.0
32 0.0
33 0.062574722249058
34 0.0
35 0.0
36 0.0
37 0.0
38 0.0
39 0.0
40 0.0
41 0.0
42 -0.11351105822371
43 0.0
44 0.0
45 0.008709465772539
46 0.0
47 0.0
48 -0.079199356952039
49 0.0
50 0.0
51 -0.40393826372400
52 0.0
53 0.0
54 0.0
55 0.0
56 0.0
57 0.0
58 -0.000170653502512
59 0.0
60 0.0
61 0.0
62 0.0
63 0.0
64 -0.013028354307193
65 0.0
66 0.0
67 0.0
68 0.0
69 0.0
70 0.037813147240552
71 0.0
72 -0.000132734055557
73 0.0
74 0.0
75 -0.000059360474231
76 0.0
77 0.0
78 0.000237441896924
79 0.0
80 0.0
81 0.0
82 0.000243193760049
83 0.0
84 0.0
85 0.000108759555834
86 0.0
87 0.0
88 -0.000435038223338
89 0.0
90 0.0
 Sym=     13.1
 Ene=       0.1370
 Spin= Alpha
 Occup=    0.000000
1 0.0
2 0.0
3 0.0
4 0.0
5 0.46848451816554
6 0.0
7 0.0
8 1.44303775275644
9 0.0
10 0.0