
 Primary working directories    : /local/22669333.1.eddie
 Secondary working directories  : /local/22669333.1.eddie
 Wavefunction directory         : /home/msimmerm/wfu/
 Main file repository           : /local/22669333.1.eddie/

 SHA1      : c1a8c69cbe265860639293024702cdb9dae59da4
 NAME      : 2012.1.22
 ARCHNAME  : Linux/x86_64
 FC        : /usr/bin/gfortran
 FCVERSION : 4.8.5
 BLASLIB   : -L/usr/lib64 -lblas
 id        : edinburgh

 Nodes                 nprocs
 node1j10.ecdf.ed.ac.uk    1

 Using customized tuning parameters: mindgm=****************; mindgv=****************; mindgc=****************; mindgr=****************; noblas=0; minvec=7
 default implementation of scratch files=df  

 ***,LiF
 memory,800,m
 gprint,civector,orbitals,angles=-1,distance=-1
 gthresh,twoint=1.0d-13
 gthresh,energy=1.0d-7,gradient=1.0d-2
 gthresh,thrpun=0.000000001
 punch,lif_eq.pun,new
 
 orient,noorient
 symmetry,nosym
 angstrom
 geomtyp=xyz
 geometry={
 2
 LiF
 Li   0.0000000000   0.0000000000  -0.7918000000
 F    0.0000000000   0.0000000000   0.7918000000
 }
 
 basis,f=avtz,li=vtz
 
 {hf
 wf,12,1
 }
 
 {multi
 failsafe
 maxit,40
 config,det
 occ,7
 closed,3
 wf,12,1
 state,4
 orbital,2140.3
 }
 
 put,molden,lif_eq.mld

 Variables initialized (782), CPU time= 0.00 sec
 Commands  initialized (547), CPU time= 0.01 sec, 517 directives.
 Default parameters read. Elapsed time= 0.11 sec

 Checking input...
 Passed
1


                                         ***  PROGRAM SYSTEM MOLPRO  ***
                         Copyright, University College Cardiff Consultants Limited, 2008

                                    Version 2012.1 linked Nov 29 2016 14:47:39


 **********************************************************************************************************************************
 LABEL *   LiF                                                                           
 Linux-3.10.0-1160.49.1.el7.x86_64/node1j10.ecdf.ed.ac.uk(x86_64) 64 bit serial version  DATE: 16-Aug-22          TIME: 14:34:40  
 **********************************************************************************************************************************

 SHA1:             c1a8c69cbe265860639293024702cdb9dae59da4
 **********************************************************************************************************************************


 THRESHOLDS:

 ZERO    =  1.00D-12  ONEINT  =  1.00D-12  TWOINT  =  1.00D-13  PREFAC  =  1.00D-14  LOCALI  =  1.00D-09  EORDER  =  1.00D-04
 ENERGY  =  0.00D+00  ETEST   =  0.00D+00  EDENS   =  0.00D+00  THRDEDEF=  1.00D-06  GRADIENT=  1.00D-02  STEP    =  1.00D-03
 ORBITAL =  1.00D-05  CIVEC   =  1.00D-05  COEFF   =  1.00D-04  PRINTCI =  5.00D-02  PUNCHCI =  9.90D+01  OPTGRAD =  3.00D-04
 OPTENERG=  1.00D-06  OPTSTEP =  3.00D-04  THRGRAD =  1.00D-10  COMPRESS=  1.00D-11  VARMIN  =  1.00D-07  VARMAX  =  1.00D-03
 THRDOUB =  0.00D+00  THRDIV  =  1.00D-05  THRRED  =  1.00D-07  THRPSP  =  1.00D+00  THRDC   =  1.00D-10  THRCS   =  1.00D-10
 THRNRM  =  1.00D-08  THREQ   =  0.00D+00  THRDE   =  1.00D+00  THRREF  =  1.00D-05  SPARFAC =  1.00D+00  THRDLP  =  1.00D-07
 THRDIA  =  1.00D-10  THRDLS  =  1.00D-07  THRGPS  =  0.00D+00  THRKEX  =  0.00D+00  THRDIS  =  2.00D-01  THRVAR  =  1.00D-10
 THRLOC  =  1.00D-06  THRGAP  =  1.00D-06  THRLOCT = -1.00D+00  THRGAPT = -1.00D+00  THRORB  =  1.00D-06  THRMLTP =  0.00D+00
 THRCPQCI=  1.00D-10  KEXTA   =  0.00D+00  THRCOARS=  0.00D+00  SYMTOL  =  1.00D-06  GRADTOL =  1.00D-06  THROVL  =  1.00D-08
 THRORTH =  1.00D-08  GRID    =  1.00D-06  GRIDMAX =  1.00D-03  DTMAX   =  0.00D+00  THROCCDE=  1.00D-01  THROCCDE=  1.00D-01



 THRESHOLDS:

 ZERO    =  1.00D-12  ONEINT  =  1.00D-12  TWOINT  =  1.00D-13  PREFAC  =  1.00D-14  LOCALI  =  1.00D-09  EORDER  =  1.00D-04
 ENERGY  =  1.00D-07  ETEST   =  0.00D+00  EDENS   =  0.00D+00  THRDEDEF=  1.00D-06  GRADIENT=  1.00D-02  STEP    =  1.00D-03
 ORBITAL =  1.00D-05  CIVEC   =  1.00D-05  COEFF   =  1.00D-04  PRINTCI =  5.00D-02  PUNCHCI =  9.90D+01  OPTGRAD =  3.00D-04
 OPTENERG=  1.00D-06  OPTSTEP =  3.00D-04  THRGRAD =  1.00D-10  COMPRESS=  1.00D-11  VARMIN  =  1.00D-07  VARMAX  =  1.00D-03
 THRDOUB =  0.00D+00  THRDIV  =  1.00D-05  THRRED  =  1.00D-07  THRPSP  =  1.00D+00  THRDC   =  1.00D-10  THRCS   =  1.00D-10
 THRNRM  =  1.00D-08  THREQ   =  0.00D+00  THRDE   =  1.00D+00  THRREF  =  1.00D-05  SPARFAC =  1.00D+00  THRDLP  =  1.00D-07
 THRDIA  =  1.00D-10  THRDLS  =  1.00D-07  THRGPS  =  0.00D+00  THRKEX  =  0.00D+00  THRDIS  =  2.00D-01  THRVAR  =  1.00D-10
 THRLOC  =  1.00D-06  THRGAP  =  1.00D-06  THRLOCT = -1.00D+00  THRGAPT = -1.00D+00  THRORB  =  1.00D-06  THRMLTP =  0.00D+00
 THRCPQCI=  1.00D-10  KEXTA   =  0.00D+00  THRCOARS=  0.00D+00  SYMTOL  =  1.00D-06  GRADTOL =  1.00D-06  THROVL  =  1.00D-08
 THRORTH =  1.00D-08  GRID    =  1.00D-06  GRIDMAX =  1.00D-03  DTMAX   =  0.00D+00  THROCCDE=  1.00D-01  THROCCDE=  1.00D-01



 THRESHOLDS:

 ZERO    =  1.00D-12  ONEINT  =  1.00D-12  TWOINT  =  1.00D-13  PREFAC  =  1.00D-14  LOCALI  =  1.00D-09  EORDER  =  1.00D-04
 ENERGY  =  1.00D-07  ETEST   =  0.00D+00  EDENS   =  0.00D+00  THRDEDEF=  1.00D-06  GRADIENT=  1.00D-02  STEP    =  1.00D-03
 ORBITAL =  1.00D-05  CIVEC   =  1.00D-05  COEFF   =  1.00D-04  PRINTCI =  5.00D-02  PUNCHCI =  1.00D-09  OPTGRAD =  3.00D-04
 OPTENERG=  1.00D-06  OPTSTEP =  3.00D-04  THRGRAD =  1.00D-10  COMPRESS=  1.00D-11  VARMIN  =  1.00D-07  VARMAX  =  1.00D-03
 THRDOUB =  0.00D+00  THRDIV  =  1.00D-05  THRRED  =  1.00D-07  THRPSP  =  1.00D+00  THRDC   =  1.00D-10  THRCS   =  1.00D-10
 THRNRM  =  1.00D-08  THREQ   =  0.00D+00  THRDE   =  1.00D+00  THRREF  =  1.00D-05  SPARFAC =  1.00D+00  THRDLP  =  1.00D-07
 THRDIA  =  1.00D-10  THRDLS  =  1.00D-07  THRGPS  =  0.00D+00  THRKEX  =  0.00D+00  THRDIS  =  2.00D-01  THRVAR  =  1.00D-10
 THRLOC  =  1.00D-06  THRGAP  =  1.00D-06  THRLOCT = -1.00D+00  THRGAPT = -1.00D+00  THRORB  =  1.00D-06  THRMLTP =  0.00D+00
 THRCPQCI=  1.00D-10  KEXTA   =  0.00D+00  THRCOARS=  0.00D+00  SYMTOL  =  1.00D-06  GRADTOL =  1.00D-06  THROVL  =  1.00D-08
 THRORTH =  1.00D-08  GRID    =  1.00D-06  GRIDMAX =  1.00D-03  DTMAX   =  0.00D+00  THROCCDE=  1.00D-01  THROCCDE=  1.00D-01



 PUNCHFILE LIF_EQ.PUN OPENED

 Variable memory set to  800000000 words,  buffer space   230000 words

 SETTING GEOMTYP        =    XYZ
 ZSYMEL=NOSYM
 ZUNIT=ANG

 SETTING BASIS          =    F=AVTZ,LI=VTZ


 Recomputing integrals since basis changed


 Using spherical harmonics

 Library entry LI     S cc-pVTZ              selected for orbital group  1
 Library entry LI     P cc-pVTZ              selected for orbital group  1
 Library entry LI     D cc-pVTZ              selected for orbital group  1
 Library entry LI     F cc-pVTZ              selected for orbital group  1
 Library entry F      S aug-cc-pVTZ          selected for orbital group  2
 Library entry F      P aug-cc-pVTZ          selected for orbital group  2
 Library entry F      D aug-cc-pVTZ          selected for orbital group  2
 Library entry F      F aug-cc-pVTZ          selected for orbital group  2

1PROGRAM * SEWARD (Integral evaluation for generally contracted gaussian basis sets)     Author: Roland Lindh, 1990

 Geometry written to block  1 of record 700


 Point group  C1  



 ATOMIC COORDINATES

 NR  ATOM    CHARGE       X              Y              Z

   1  LI      3.00    0.000000000    0.000000000   -1.496285151
   2  F       9.00    0.000000000    0.000000000    1.496285151

 NUCLEAR CHARGE:                   12
 NUMBER OF PRIMITIVE AOS:         115
 NUMBER OF SYMMETRY AOS:          101
 NUMBER OF CONTRACTIONS:           76   (  76A   )
 NUMBER OF CORE ORBITALS:           2   (   2A   )
 NUMBER OF VALENCE ORBITALS:        8   (   8A   )


 NUCLEAR REPULSION ENERGY    9.02234443

 EXTRA SYMMETRY OF AOS IN SYMMETRY 1:   1 1 1 1 2 3 1 2 3 1   2 3 1 1 4 2 5 3 1 4   2 5 3 2 3 1 6 4 7 5   1 1 1 1 1 2 3 1 2 3
                                        1 2 3 1 2 3 1 1 4 2   5 3 1 4 2 5 3 1 4 2   5 3 2 3 1 6 4 7 5 2   3 1 6 4 7 5

 Eigenvalues of metric

         1 0.486E-03 0.170E-02 0.393E-02 0.776E-02 0.776E-02 0.124E-01 0.233E-01 0.233E-01


 Contracted 2-electron integrals neglected if value below      1.0D-13
 AO integral compression algorithm  1   Integral accuracy      1.0D-13

     10.486 MB (compressed) written to integral file ( 21.8%)


 NUMBER OF SORTED TWO-ELECTRON INTEGRALS:    4282201.     BUFFER LENGTH:  32768
 NUMBER OF SEGMENTS:   1  SEGMENT LENGTH:    4282201      RECORD LENGTH: 524288

 Memory used in sort:       4.84 MW

 SORT1 READ     5977830. AND WROTE      831755. INTEGRALS IN      3 RECORDS. CPU TIME:     0.03 SEC, REAL TIME:     0.04 SEC
 SORT2 READ      831755. AND WROTE     4282201. INTEGRALS IN     40 RECORDS. CPU TIME:     0.14 SEC, REAL TIME:     0.15 SEC

 FILE SIZES:   FILE 1:    18.2 MBYTE,  FILE 4:    12.6 MBYTE,   TOTAL:     30.9 MBYTE

 OPERATOR DM      FOR CENTER  0  COORDINATES:    0.000000    0.000000    0.000000


 **********************************************************************************************************************************
 DATASETS  * FILE   NREC   LENGTH (MB)   RECORD NAMES
              1      19       14.46       500      610      700      900      950      970     1000      129      960     1100   
                                          VAR    BASINP    GEOM    SYMINP    ZMAT    AOBASIS   BASIS     P2S    ABASIS      S 
                                         1400     1410     1200     1210     1080     1600     1650     1300     1700   
                                           T        V       H0       H01     AOSYM     SMH    MOLCAS    ERIS     OPER   

 PROGRAMS   *        TOTAL       INT
 CPU TIMES  *         0.67      0.56
 REAL TIME  *         1.25 SEC
 DISK USED  *        31.15 MB      
 **********************************************************************************************************************************

1PROGRAM * RHF-SCF (CLOSED SHELL)       Authors: W. Meyer, H.-J. Werner


 NUMBER OF ELECTRONS:       6+    6-    SPACE SYMMETRY=1    SPIN SYMMETRY: Singlet 
 CONVERGENCE THRESHOLDS:    3.16E-06 (Density)    1.00E-08 (Energy)
 MAX. NUMBER OF ITERATIONS:       60
 INTERPOLATION TYPE:            DIIS
 INTERPOLATION STEPS:              2 (START)      1 (STEP)
 LEVEL SHIFTS:                  0.00 (CLOSED)  0.00 (OPEN) 



 Orbital guess generated from atomic densities. Full valence occupancy:    7

 Molecular orbital dump at record        2100.2

 ITERATION    DDIFF          GRAD             ENERGY        2-EL.EN.            DIPOLE MOMENTS         DIIS   ORB.
    1      0.000D+00      0.000D+00      -106.90772773    111.174410    0.00000   -0.00000   -2.80743    0    start
    2      0.000D+00      0.154D-01      -106.94606824    103.231560   -0.00000   -0.00000   -2.51999    1    diag
    3      0.279D-01      0.131D-01      -106.98247058    106.416397    0.00000    0.00000   -2.59331    2    diag
    4      0.917D-02      0.718D-03      -106.98259929    106.500944    0.00000    0.00000   -2.58013    3    diag
    5      0.123D-02      0.943D-04      -106.98260428    106.514739    0.00000   -0.00000   -2.57768    4    diag
    6      0.172D-03      0.183D-04      -106.98260470    106.512960    0.00000   -0.00000   -2.57686    5    diag
    7      0.512D-04      0.471D-05      -106.98260473    106.513239   -0.00000   -0.00000   -2.57681    6    diag
    8      0.169D-04      0.765D-06      -106.98260473    106.513209    0.00000   -0.00000   -2.57682    7    diag
    9      0.219D-05      0.130D-06      -106.98260473    106.513180    0.00000    0.00000   -2.57683    0    orth

 Final occupancy:   6

 !RHF STATE 1.1 Energy               -106.982604727760
 Nuclear energy                         9.02234443
 One-electron energy                 -169.26153914
 Two-electron energy                   53.25658998
 Virial quotient                       -1.00060268
 !RHF STATE 1.1 Dipole moment           0.00000000     0.00000000    -2.57682521
 Dipole moment /Debye                   0.00000000     0.00000000    -6.54920742

 ELECTRON ORBITALS
 =================


   Orb  Occ    Energy  Couls-En    Coefficients

                                   1 1s      1 1s      1 1s      1 1s      1 2px     1 2py     1 2pz     1 2px     1 2py     1 2pz  
                                   1 2px     1 2py     1 2pz     1 3d0     1 3d2-    1 3d1+    1 3d2+    1 3d1-    1 3d0     1 3d2- 
                                   1 3d1+    1 3d2+    1 3d1-    1 4f1+    1 4f1-    1 4f0     1 4f3+    1 4f2-    1 4f3-    1 4f2+ 
                                   2 1s      2 1s      2 1s      2 1s      2 1s      2 2px     2 2py     2 2pz     2 2px     2 2py  
                                   2 2pz     2 2px     2 2py     2 2pz     2 2px     2 2py     2 2pz     2 3d0     2 3d2-    2 3d1+ 
                                   2 3d2+    2 3d1-    2 3d0     2 3d2-    2 3d1+    2 3d2+    2 3d1-    2 3d0     2 3d2-    2 3d1+ 
                                   2 3d2+    2 3d1-    2 4f1+    2 4f1-    2 4f0     2 4f3+    2 4f2-    2 4f3-    2 4f2+    2 4f1+ 
                                   2 4f1-    2 4f0     2 4f3+    2 4f2-    2 4f3-    2 4f2+ 

   1.1   2   -26.1139  -67.5331  0.000623  0.002992 -0.001631 -0.001273 -0.000000 -0.000000 -0.003254  0.000000  0.000000  0.001973
                                 0.000000  0.000000  0.001195 -0.000447 -0.000000  0.000000  0.000000 -0.000000 -0.000134 -0.000000
                                -0.000000 -0.000000  0.000000 -0.000000 -0.000000 -0.000255 -0.000000  0.000000 -0.000000 -0.000000
                                 0.999160 -0.002119  0.000785  0.003673 -0.001643  0.000000  0.000000 -0.000898 -0.000000 -0.000000
                                 0.000672 -0.000000  0.000000 -0.000411  0.000000 -0.000000  0.000595  0.000005 -0.000000 -0.000000
                                 0.000000 -0.000000  0.000042 -0.000000  0.000000 -0.000000  0.000000  0.000118 -0.000000  0.000000
                                -0.000000 -0.000000  0.000000 -0.000000  0.000035  0.000000 -0.000000  0.000000 -0.000000  0.000000
                                 0.000000 -0.000096  0.000000 -0.000000 -0.000000  0.000000

   2.1   2    -2.4378   -9.8844  0.995614 -0.007535 -0.057696  0.004728 -0.000000 -0.000000 -0.140702  0.000000  0.000000  0.049091
                                 0.000000 -0.000000  0.057596 -0.012395 -0.000000  0.000000 -0.000000 -0.000000 -0.008984  0.000000
                                 0.000000  0.000000 -0.000000  0.000000 -0.000000 -0.005227  0.000000 -0.000000  0.000000 -0.000000
                                -0.002215  0.016221  0.000477  0.018786  0.063635  0.000000 -0.000000 -0.013197 -0.000000  0.000000
                                 0.000963 -0.000000  0.000000 -0.014817 -0.000000  0.000000 -0.011393  0.000296 -0.000000  0.000000
                                 0.000000  0.000000  0.001720 -0.000000 -0.000000  0.000000 -0.000000  0.002615 -0.000000  0.000000
                                 0.000000 -0.000000  0.000000  0.000000 -0.000445 -0.000000 -0.000000  0.000000  0.000000 -0.000000
                                -0.000000  0.000067  0.000000  0.000000 -0.000000 -0.000000

   3.1   2    -1.3772  -11.2001 -0.044513  0.127237 -0.022598 -0.068980  0.000000 -0.000000  0.128641 -0.000000  0.000000 -0.045568
                                -0.000000  0.000000 -0.053151  0.012642  0.000000  0.000000  0.000000 -0.000000  0.008675  0.000000
                                -0.000000  0.000000  0.000000 -0.000000 -0.000000  0.006425 -0.000000  0.000000 -0.000000  0.000000
                                -0.006507  0.949065 -0.002893  0.021417 -0.019429 -0.000000  0.000000 -0.025330  0.000000 -0.000000
                                -0.004853 -0.000000  0.000000 -0.007182  0.000000 -0.000000  0.006464  0.000194  0.000000 -0.000000
                                -0.000000 -0.000000  0.003783 -0.000000  0.000000  0.000000  0.000000  0.006912 -0.000000  0.000000
                                -0.000000 -0.000000  0.000000  0.000000  0.000473 -0.000000 -0.000000 -0.000000 -0.000000 -0.000000
                                 0.000000 -0.003394  0.000000  0.000000  0.000000  0.000000

   4.1   2    -0.4972   -9.2597  0.026462 -0.434659  0.058107  0.234688 -0.000000 -0.000000 -0.516186  0.000000  0.000000  0.187572
                                 0.000000  0.000000  0.210066 -0.034913  0.000000 -0.000000 -0.000000 -0.000000 -0.030728  0.000000
                                -0.000000  0.000000  0.000000 -0.000000 -0.000000 -0.019752  0.000000  0.000000  0.000000 -0.000000
                                 0.001608  0.068363  0.001865  0.038203  0.176669 -0.000000 -0.000000  0.913918 -0.000000  0.000000
                                 0.004346  0.000000  0.000000  0.034741  0.000000  0.000000  0.027857 -0.001564  0.000000  0.000000
                                 0.000000  0.000000 -0.008606 -0.000000  0.000000 -0.000000  0.000000 -0.020875  0.000000 -0.000000
                                 0.000000 -0.000000  0.000000  0.000000 -0.001008 -0.000000  0.000000 -0.000000  0.000000  0.000000
                                -0.000000  0.007773 -0.000000  0.000000 -0.000000 -0.000000

   5.1   2    -0.4740   -9.0638 -0.000000 -0.000000  0.000000  0.000000  0.000779  0.199313  0.000000 -0.000401 -0.102500 -0.000000
                                -0.000301 -0.077109 -0.000000  0.000000 -0.000000  0.000047 -0.000000  0.011910  0.000000  0.000000
                                 0.000007 -0.000000  0.001858 -0.000001 -0.000276 -0.000000 -0.000000  0.000000  0.000000  0.000000
                                 0.000000  0.000000 -0.000000 -0.000000 -0.000000  0.003557  0.909999  0.000000  0.000006  0.001589
                                -0.000000  0.000239  0.061013  0.000000  0.000261  0.066872  0.000000 -0.000000  0.000000 -0.000005
                                 0.000000 -0.001389  0.000000 -0.000000 -0.000029 -0.000000 -0.007293 -0.000000  0.000000 -0.000069
                                 0.000000 -0.017682 -0.000002 -0.000546 -0.000000 -0.000000  0.000000  0.000000  0.000000  0.000022
                                 0.005541  0.000000 -0.000000 -0.000000  0.000000 -0.000000

   6.1   2    -0.4740   -9.0638  0.000000  0.000000 -0.000000 -0.000000  0.199313 -0.000779 -0.000000 -0.102500  0.000401  0.000000
                                -0.077109  0.000301  0.000000 -0.000000  0.000000  0.011910 -0.000000 -0.000047 -0.000000 -0.000000
                                 0.001858 -0.000000 -0.000007 -0.000276  0.000001  0.000000 -0.000000  0.000000 -0.000000 -0.000000
                                -0.000000 -0.000000  0.000000  0.000000  0.000000  0.909999 -0.003557  0.000000  0.001589 -0.000006
                                 0.000000  0.061013 -0.000239 -0.000000  0.066872 -0.000261 -0.000000  0.000000 -0.000000 -0.001389
                                -0.000000  0.000005 -0.000000 -0.000000 -0.007293 -0.000000  0.000029  0.000000 -0.000000 -0.017682
                                 0.000000  0.000069 -0.000546  0.000002  0.000000 -0.000000  0.000000  0.000000 -0.000000  0.005541
                                -0.000022 -0.000000 -0.000000  0.000000 -0.000000  0.000000

 HOMO      6.1    -0.474029 =     -12.8990eV
 LUMO      7.1    -0.004760 =      -0.1295eV
 LUMO-HOMO         0.469269 =      12.7695eV


 **********************************************************************************************************************************
 DATASETS  * FILE   NREC   LENGTH (MB)   RECORD NAMES
              1      19       14.46       500      610      700      900      950      970     1000      129      960     1100   
                                          VAR    BASINP    GEOM    SYMINP    ZMAT    AOBASIS   BASIS     P2S    ABASIS      S 
                                         1400     1410     1200     1210     1080     1600     1650     1300     1700   
                                           T        V       H0       H01     AOSYM     SMH    MOLCAS    ERIS     OPER   

              2       4        0.47       700     1000      520     2100   
                                         GEOM     BASIS   MCVARS     RHF  

 PROGRAMS   *        TOTAL        HF       INT
 CPU TIMES  *         1.17      0.50      0.56
 REAL TIME  *         1.78 SEC
 DISK USED  *        31.15 MB      
 **********************************************************************************************************************************

1PROGRAM * MULTI (Direct Multiconfiguration SCF)       Authors: P.J. Knowles, H.-J. Werner (1984)     S.T. Elbert (1988)


 Number of closed-shell orbitals:   3 (   3 )
 Number of active  orbitals:        4 (   4 )
 Number of external orbitals:      69 (  69 )

 State symmetry 1

 Number of electrons:     6    Spin symmetry=Singlet   Space symmetry=1
 Number of states:        4
 Number of CSFs:         10   (16 determinants, 16 intermediate states)

 Iteration controls:
             1  2  3  4  5  6  7  8  9 10 11 12 13 14 15 16 17 18 19 20 21 22 23 24 25 26 27 28 29 30 31 32 33 34 35 36 37 38 39
 DIAGCI      T  T  T  T  T  T  T  T  T  T  T  T  T  T  T  T  T  T  T  T  T  T  T  T  T  T  T  T  T  T  T  T  T  T  T  T  T  T  T
 WERNER      T  T  T  T  T  T  T  T  T  T  T  T  T  T  T  T  T  T  T  T  T  T  T  T  T  T  T  T  T  T  T  T  T  T  T  T  T  T  T
 INTERNAL    F  T  T  T  T  T  T  T  T  T  T  T  T  T  T  T  T  T  T  T  T  T  T  T  T  T  T  T  T  T  T  T  T  T  T  T  T  T  T

 Molecular orbitals read from record     2100.2  Type=RHF/CANONICAL (state 1.1)
 *** IN SYMMETRY 1 ORBITAL  5 SYMMETRY CONTAMINATION OF 0.389D-02 HAS BEEN REMOVED
 *** IN SYMMETRY 1 ORBITAL  6 SYMMETRY CONTAMINATION OF 0.389D-02 HAS BEEN REMOVED

 EXTRA SYMMETRY OF MOS IN SYMMETRY 1:   1 1 1 1 3 2 1 2 3 1   1 2 3 1 4 5 1 3 2 2   3 1 1 2 3 4 5 7 6 1   3 2 1 5 4 2 3 1 1 4
                                        5 2 3 1 2 3 1 1 3 2   4 5 6 7 1 4 5 2 3 1   2 3 1 6 7 4 5 2 3 1   4 5 1 3 2 1

 Wavefunction dump at record             2140.3

 Convergence thresholds  0.10E-01 (gradient)  0.10E-06 (energy)  0.10E-02 (step length)

 Weight factors for state symmetry  1:    0.25000   0.25000   0.25000   0.25000

 Number of orbital rotations:      495   (    12 Core/Active    207 Core/Virtual   0 Active/Active    276 Active/Virtual)
 Total number of variables:        559


 ITER. MIC  NCI  NEG     ENERGY(VAR)     ENERGY(PROJ)   ENERGY CHANGE     GRAD(0)  GRAD(ORB)   GRAD(CI)     STEP       TIME

   1   90    8    0    -106.73391358    -106.84856307   -0.11464949    0.55676720 0.00015634 0.00000000  0.53D+00      0.29
   2   20    9    0    -106.80828435    -106.81823052   -0.00994617    0.24080372 0.00000000 0.00000000  0.85D-01      0.47
   3   29   16    0    -106.81834418    -106.81834786   -0.00000368    0.00490272 0.00000000 0.00000000  0.15D-02      0.72
   4   88   12    0    -106.81834786    -106.81834786   -0.00000000    0.00000227 0.00000000 0.00000000  0.95D-06      0.94

 ** WVFN ****  CONVERGENCE REACHED, FINAL GRADIENT:  0.29D-07



 Results for state 1.1
 =====================

 !MCSCF STATE 1.1 Energy             -106.909878187051
 Nuclear energy                         9.02234443
 Kinetic energy                       109.10487956
 One electron energy                 -171.42065803
 Two electron energy                   55.48843541
 Virial ratio                           1.97988173

 !MCSCF STATE 1.1 Dipole moment        -0.00000000    -0.00000000    -2.69917605
 Dipole moment /Debye                  -0.00000000    -0.00000000    -6.86017187

 Results for state 2.1
 =====================

 !MCSCF STATE 2.1 Energy             -106.793929974168
 Nuclear energy                         9.02234443
 Kinetic energy                       106.16058575
 One electron energy                 -165.10677812
 Two electron energy                   49.29050371
 Virial ratio                           2.00596591

 !MCSCF STATE 2.1 Dipole moment        -0.00000000     0.00000000     1.49226176
 Dipole moment /Debye                  -0.00000000     0.00000000     3.79270266

 Results for state 3.1
 =====================

 !MCSCF STATE 3.1 Energy             -106.793929974168
 Nuclear energy                         9.02234443
 Kinetic energy                       106.16058575
 One electron energy                 -165.10677812
 Two electron energy                   49.29050371
 Virial ratio                           2.00596591

 !MCSCF STATE 3.1 Dipole moment         0.00000000     0.00000000     1.49226176
 Dipole moment /Debye                   0.00000000     0.00000000     3.79270266

 Results for state 4.1
 =====================

 !MCSCF STATE 4.1 Energy             -106.775653316896
 Nuclear energy                         9.02234443
 Kinetic energy                       106.17786319
 One electron energy                 -165.14329044
 Two electron energy                   49.34529269
 Virial ratio                           2.00563008

 !MCSCF STATE 4.1 Dipole moment        -0.00000000    -0.00000000     1.44365754
 Dipole moment /Debye                  -0.00000000    -0.00000000     3.66917112

 State-averaged charge density matrix saved on record  2140.3 (density set 1)

 !MCSCF trans         <2.1|DMX|1.1>     0.030502302114 au =     0.077524041006 Debye
 !MCSCF trans         <3.1|DMX|1.1>    -0.221830663894 au =    -0.563800378739 Debye
 !MCSCF trans         <4.1|DMX|2.1>     0.002425594947 au =     0.006164843605 Debye
 !MCSCF trans         <4.1|DMX|3.1>    -0.017640351715 au =    -0.044834365112 Debye

 !MCSCF trans         <2.1|DMY|1.1>    -0.221830663894 au =    -0.563800378739 Debye
 !MCSCF trans         <3.1|DMY|1.1>    -0.030502302114 au =    -0.077524041006 Debye
 !MCSCF trans         <4.1|DMY|2.1>    -0.017640351715 au =    -0.044834365112 Debye
 !MCSCF trans         <4.1|DMY|3.1>    -0.002425594947 au =    -0.006164843605 Debye

 !MCSCF expec         <1.1|DMZ|1.1>    -2.699176050286 au =    -6.860171865886 Debye
 !MCSCF expec         <2.1|DMZ|2.1>     1.492261764748 au =     3.792702656047 Debye
 !MCSCF expec         <3.1|DMZ|3.1>     1.492261764748 au =     3.792702656047 Debye
 !MCSCF trans         <4.1|DMZ|1.1>    -0.595447349042 au =    -1.513377073378 Debye
 !MCSCF expec         <4.1|DMZ|4.1>     1.443657535527 au =     3.669171119144 Debye


 NATURAL ORBITALS (state averaged)
 =================================

   Orb     Occ        Energy       Coefficients

                                   1 1s      1 1s      1 1s      1 1s      1 2px     1 2py     1 2pz     1 2px     1 2py     1 2pz  
                                   1 2px     1 2py     1 2pz     1 3d0     1 3d2-    1 3d1+    1 3d2+    1 3d1-    1 3d0     1 3d2- 
                                   1 3d1+    1 3d2+    1 3d1-    1 4f1+    1 4f1-    1 4f0     1 4f3+    1 4f2-    1 4f3-    1 4f2+ 
                                   2 1s      2 1s      2 1s      2 1s      2 1s      2 2px     2 2py     2 2pz     2 2px     2 2py  
                                   2 2pz     2 2px     2 2py     2 2pz     2 2px     2 2py     2 2pz     2 3d0     2 3d2-    2 3d1+ 
                                   2 3d2+    2 3d1-    2 3d0     2 3d2-    2 3d1+    2 3d2+    2 3d1-    2 3d0     2 3d2-    2 3d1+ 
                                   2 3d2+    2 3d1-    2 4f1+    2 4f1-    2 4f0     2 4f3+    2 4f2-    2 4f3-    2 4f2+    2 4f1+ 
                                   2 4f1-    2 4f0     2 4f3+    2 4f2-    2 4f3-    2 4f2+ 

   1.1  2.00000   -26.406363     0.000584  0.002690 -0.001381 -0.001160  0.000000  0.000000 -0.003096  0.000000  0.000000  0.001952
                                 0.000000  0.000000  0.001130 -0.000448  0.000000  0.000000  0.000000  0.000000 -0.000118  0.000000
                                 0.000000  0.000000  0.000000  0.000000  0.000000 -0.000261  0.000000  0.000000  0.000000  0.000000
                                 0.999187 -0.002229  0.000743  0.003684 -0.001806  0.000000  0.000000 -0.000497  0.000000  0.000000
                                 0.000411  0.000000  0.000000 -0.000452  0.000000  0.000000  0.000622 -0.000001  0.000000  0.000000
                                 0.000000  0.000000  0.000041  0.000000  0.000000  0.000000  0.000000  0.000098  0.000000  0.000000
                                 0.000000  0.000000  0.000000  0.000000  0.000033  0.000000  0.000000  0.000000  0.000000  0.000000
                                 0.000000 -0.000092  0.000000  0.000000  0.000000  0.000000

   2.1  2.00000    -2.472657     0.997536  0.001157  0.003498  0.000056  0.000000  0.000000  0.000540  0.000000  0.000000  0.002833
                                 0.000000  0.000000 -0.000812  0.000228  0.000000  0.000000  0.000000  0.000000  0.001272  0.000000
                                 0.000000  0.000000  0.000000  0.000000  0.000000  0.000480  0.000000  0.000000  0.000000  0.000000
                                -0.000592  0.029132 -0.000304 -0.000599 -0.006122  0.000000  0.000000 -0.009840  0.000000  0.000000
                                -0.000692  0.000000  0.000000  0.001098  0.000000  0.000000  0.001381  0.000350  0.000000  0.000000
                                 0.000000  0.000000  0.001716  0.000000  0.000000  0.000000  0.000000  0.000754  0.000000  0.000000
                                 0.000000  0.000000  0.000000  0.000000 -0.000177  0.000000  0.000000  0.000000  0.000000  0.000000
                                 0.000000 -0.000740  0.000000  0.000000  0.000000  0.000000

   3.1  2.00000    -1.618198    -0.051550  0.107002 -0.022280 -0.055203  0.000000  0.000000  0.070882  0.000000  0.000000 -0.018097
                                 0.000000  0.000000 -0.030602  0.007431  0.000000  0.000000  0.000000  0.000000  0.005203  0.000000
                                 0.000000  0.000000  0.000000  0.000000  0.000000  0.003260  0.000000  0.000000  0.000000  0.000000
                                -0.001150  0.987968 -0.001446  0.003153 -0.035396  0.000000  0.000000 -0.023614  0.000000  0.000000
                                -0.004774  0.000000  0.000000 -0.007107  0.000000  0.000000  0.010815  0.000100  0.000000  0.000000
                                 0.000000  0.000000  0.003952  0.000000  0.000000  0.000000  0.000000  0.005801  0.000000  0.000000
                                 0.000000  0.000000  0.000000  0.000000  0.000476  0.000000  0.000000  0.000000  0.000000  0.000000
                                 0.000000 -0.003396  0.000000  0.000000  0.000000  0.000000

   4.1  1.75000    -0.650476    -0.000000  0.000000 -0.000000 -0.000000  0.037003  0.059872  0.000000 -0.025732 -0.041636 -0.000000
                                -0.012586 -0.020365 -0.000000  0.000000  0.000000 -0.000092  0.000000 -0.000149  0.000000  0.000000
                                -0.002814  0.000000 -0.004554 -0.003283 -0.005312  0.000000  0.000000  0.000000  0.000000  0.000000
                                -0.000000 -0.000000 -0.000000 -0.000000 -0.000000  0.511894  0.828261 -0.000000  0.002264  0.003663
                                -0.000000  0.009919  0.016050  0.000000  0.015740  0.025468 -0.000000  0.000000  0.000000 -0.000552
                                 0.000000 -0.000893  0.000000  0.000000 -0.003140  0.000000 -0.005081  0.000000  0.000000 -0.009083
                                 0.000000 -0.014696 -0.000284 -0.000459  0.000000  0.000000  0.000000  0.000000  0.000000  0.002941
                                 0.004759 -0.000000  0.000000  0.000000  0.000000  0.000000

   5.1  1.75000    -0.650476     0.000000 -0.000000  0.000000  0.000000  0.059872 -0.037003 -0.000000 -0.041636  0.025732  0.000000
                                -0.020365  0.012586  0.000000 -0.000000  0.000000 -0.000149  0.000000  0.000092 -0.000000  0.000000
                                -0.004554  0.000000  0.002814 -0.005312  0.003283 -0.000000  0.000000  0.000000  0.000000  0.000000
                                 0.000000  0.000000  0.000000  0.000000  0.000000  0.828261 -0.511894  0.000000  0.003663 -0.002264
                                 0.000000  0.016050 -0.009919 -0.000000  0.025468 -0.015740  0.000000 -0.000000  0.000000 -0.000893
                                 0.000000  0.000552 -0.000000  0.000000 -0.005081  0.000000  0.003140 -0.000000  0.000000 -0.014696
                                 0.000000  0.009083 -0.000459  0.000284 -0.000000  0.000000  0.000000  0.000000  0.000000  0.004759
                                -0.002941  0.000000  0.000000  0.000000  0.000000  0.000000

   6.1  1.75000    -0.668342     0.025112 -0.357167  0.099070  0.195473 -0.000000  0.000000 -0.325071  0.000000 -0.000000  0.121648
                                 0.000000 -0.000000  0.131892 -0.034032  0.000000  0.000000  0.000000 -0.000000 -0.018200  0.000000
                                 0.000000  0.000000 -0.000000  0.000000 -0.000000 -0.018637  0.000000  0.000000  0.000000  0.000000
                                 0.000917  0.052096  0.002065  0.031157  0.097619 -0.000000  0.000000  0.969574 -0.000000  0.000000
                                 0.007642 -0.000000  0.000000 -0.002716 -0.000000  0.000000  0.005942 -0.001200  0.000000  0.000000
                                 0.000000 -0.000000 -0.008199  0.000000  0.000000  0.000000 -0.000000 -0.018845  0.000000  0.000000
                                 0.000000 -0.000000  0.000000 -0.000000 -0.000938  0.000000  0.000000  0.000000  0.000000 -0.000000
                                 0.000000  0.007932  0.000000  0.000000  0.000000  0.000000

   7.1  0.75000    -0.040382     0.006466  0.857175 -0.039251  0.192290 -0.000000  0.000000 -0.470586  0.000000 -0.000000  0.096932
                                 0.000000 -0.000000  0.142108 -0.008343  0.000000  0.000000  0.000000 -0.000000 -0.012057  0.000000
                                 0.000000  0.000000 -0.000000  0.000000 -0.000000 -0.002442  0.000000  0.000000  0.000000  0.000000
                                -0.001475 -0.072447 -0.001264 -0.045244 -0.059296 -0.000000  0.000000  0.031234 -0.000000  0.000000
                                 0.000994 -0.000000  0.000000  0.012331 -0.000000  0.000000  0.005064 -0.000263  0.000000  0.000000
                                 0.000000 -0.000000 -0.002404  0.000000  0.000000  0.000000 -0.000000 -0.003704  0.000000  0.000000
                                 0.000000 -0.000000  0.000000 -0.000000 -0.000075  0.000000  0.000000  0.000000  0.000000 -0.000000
                                 0.000000  0.001704  0.000000  0.000000  0.000000  0.000000

 *** IN SYMMETRY 1 ORBITAL  4 SYMMETRY CONTAMINATION OF 0.382D+00 HAS BEEN REMOVED
 *** IN SYMMETRY 1 ORBITAL  5 SYMMETRY CONTAMINATION OF 0.382D+00 HAS BEEN REMOVED

 EXTRA SYMMETRY OF MOS IN SYMMETRY 1:   1 1 1 3 2 1 1 2 3 1   1 2 3 1 1 5 4 2 3 3   2 1 1 3 2 4 5 6 7 1   3 2 1 4 5 2 3 1 4 5
                                        1 2 3 1 3 2 1 1 2 3   4 5 6 7 1 4 5 3 2 1   3 2 1 6 7 4 5 3 2 1   5 4 1 3 2 1

 Natural orbital dump (state averaged) at molpro section  2140.3    (Orbital set 2)


 CI vector
 =========

 2220      0.9921260   0.0000000   0.0000000   0.1252348
 22ba      0.0885530   0.0000000  -0.0000000  -0.7015392
 22ab     -0.0885530  -0.0000000   0.0000000   0.7015392
 2b2a      0.0000000  -0.6969472  -0.1194324  -0.0000000
 b22a     -0.0000000   0.1194324  -0.6969472   0.0000000
 a22b      0.0000000  -0.1194324   0.6969472  -0.0000000
 2a2b     -0.0000000   0.6969472   0.1194324   0.0000000

 TOTAL ENERGIES                      -106.90987819  -106.79392997  -106.79392997
                                     -106.77565332



 **********************************************************************************************************************************
 DATASETS  * FILE   NREC   LENGTH (MB)   RECORD NAMES
              1      20       16.50       500      610      700      900      950      970     1000      129      960     1100   
                                          VAR    BASINP    GEOM    SYMINP    ZMAT    AOBASIS   BASIS     P2S    ABASIS      S 
                                         1400     1410     1200     1210     1080     1600     1650     1300     1700     1380   
                                           T        V       H0       H01     AOSYM     SMH    MOLCAS    ERIS     OPER     JKOP   

              2       4        0.47       700     1000      520     2100   
                                         GEOM     BASIS   MCVARS     RHF  

              3       2        0.24      1000     2140   
                                         BASIS    MCSCF   

 PROGRAMS   *        TOTAL     MULTI        HF       INT
 CPU TIMES  *         2.28      1.10      0.50      0.56
 REAL TIME  *         2.99 SEC
 DISK USED  *        31.15 MB      
 **********************************************************************************************************************************

 Dump information in style MOLDEN to lif_eq.mld                                                                      

 Molecular orbitals read from record     2140.3  Type=MCSCF/NATURAL  
 Occupation numbers read from record     2140.3  Type=MCSCF/NATURAL  
 Orbital energies read from record       2140.3  Type=MCSCF/NATURAL  
 Redundancy group numbers read from rec  2140.3  Type=MCSCF/NATURAL  

 DUMP ORBITAL  1.1 AS ORBITAL    1  occ=    2.0000  eig=  -26.4064  GROUP= 102
 DUMP ORBITAL  2.1 AS ORBITAL    2  occ=    2.0000  eig=   -2.4727  GROUP= 102
 DUMP ORBITAL  3.1 AS ORBITAL    3  occ=    2.0000  eig=   -1.6182  GROUP= 102
 DUMP ORBITAL  4.1 AS ORBITAL    4  occ=    1.7500  eig=   -0.6505  GROUP= 103
 DUMP ORBITAL  7.1 AS ORBITAL    5  occ=    0.7500  eig=   -0.0404  GROUP= 103
 DUMP ORBITAL  5.1 AS ORBITAL    6  occ=    1.7500  eig=   -0.6505  GROUP= 303
 DUMP ORBITAL  6.1 AS ORBITAL    7  occ=    1.7500  eig=   -0.6683  GROUP= 203

 Total charge:      12.000000

 **********************************************************************************************************************************

        MULTI           HF-SCF  
   -106.77565332   -106.98260473
 **********************************************************************************************************************************
 Variable memory released
