[Molden Format]
[Atoms] Angs
LI    1    3         0.0000000000        0.0000000000       -0.7918000000
F     2    9         0.0000000000        0.0000000000        0.7918000000
[GTO]
   1 0
 s   11  1.00
  0.5988000000D+04  0.1329999901D-03
  0.8989000000D+03  0.1024999924D-02
  0.2059000000D+03  0.5271999607D-02
  0.5924000000D+02  0.2092899844D-01
  0.1987000000D+02  0.6633999506D-01
  0.7406000000D+01  0.1657749877D+00
  0.2930000000D+01  0.3150379765D+00
  0.1189000000D+01  0.3935229707D+00
  0.4798000000D+00  0.1908699858D+00
  0.7509000000D-01  0.5413999597D-02
  0.2832000000D-01 -0.1327999901D-02
 s   11  1.00
  0.5988000000D+04 -0.2100000605D-04
  0.8989000000D+03 -0.1610000464D-03
  0.2059000000D+03 -0.8200002362D-03
  0.5924000000D+02 -0.3326000958D-02
  0.1987000000D+02 -0.1051900303D-01
  0.7406000000D+01 -0.2809700809D-01
  0.2930000000D+01 -0.5593601611D-01
  0.1189000000D+01 -0.9923702859D-01
  0.4798000000D+00 -0.1121890323D+00
  0.7509000000D-01  0.5678891636D+00
  0.2832000000D-01  0.5303821528D+00
 s   11  1.00
  0.5988000000D+04  0.0000000000D+00
  0.8989000000D+03  0.0000000000D+00
  0.2059000000D+03  0.0000000000D+00
  0.5924000000D+02  0.0000000000D+00
  0.1987000000D+02  0.0000000000D+00
  0.7406000000D+01  0.0000000000D+00
  0.2930000000D+01  0.0000000000D+00
  0.1189000000D+01  0.0000000000D+00
  0.4798000000D+00  0.0000000000D+00
  0.7509000000D-01  0.1000000000D+01
  0.2832000000D-01  0.0000000000D+00
 s   11  1.00
  0.5988000000D+04  0.0000000000D+00
  0.8989000000D+03  0.0000000000D+00
  0.2059000000D+03  0.0000000000D+00
  0.5924000000D+02  0.0000000000D+00
  0.1987000000D+02  0.0000000000D+00
  0.7406000000D+01  0.0000000000D+00
  0.2930000000D+01  0.0000000000D+00
  0.1189000000D+01  0.0000000000D+00
  0.4798000000D+00  0.0000000000D+00
  0.7509000000D-01  0.0000000000D+00
  0.2832000000D-01  0.1000000000D+01
 p    5  1.00
  0.3266000000D+01  0.8630004765D-02
  0.6511000000D+00  0.4753802625D-01
  0.1696000000D+00  0.2097721158D+00
  0.5578000000D-01  0.5285222918D+00
  0.2050000000D-01  0.3827442113D+00
 p    5  1.00
  0.3266000000D+01  0.0000000000D+00
  0.6511000000D+00  0.0000000000D+00
  0.1696000000D+00  0.0000000000D+00
  0.5578000000D-01  0.1000000000D+01
  0.2050000000D-01  0.0000000000D+00
 p    5  1.00
  0.3266000000D+01  0.0000000000D+00
  0.6511000000D+00  0.0000000000D+00
  0.1696000000D+00  0.0000000000D+00
  0.5578000000D-01  0.0000000000D+00
  0.2050000000D-01  0.1000000000D+01
 d    1  1.00
  0.1900000000D+00  0.1000000000D+01
 d    1  1.00
  0.7250000000D-01  0.1000000000D+01
 f    1  1.00
  0.1270000000D+00  0.1000000000D+01
  
   2 0
 s   10  1.00
  0.1950000000D+05  0.5070001688D-03
  0.2923000000D+04  0.3923001306D-02
  0.6645000000D+03  0.2020000673D-01
  0.1875000000D+03  0.7901002631D-01
  0.6062000000D+02  0.2304390767D+00
  0.2142000000D+02  0.4328721441D+00
  0.7950000000D+01  0.3499641165D+00
  0.2257000000D+01  0.4323301440D-01
  0.8815000000D+00 -0.7892002628D-02
  0.3041000000D+00  0.2384000794D-02
 s   10  1.00
  0.1950000000D+05 -0.1169999533D-03
  0.2923000000D+04 -0.9119996360D-03
  0.6645000000D+03 -0.4716998117D-02
  0.1875000000D+03 -0.1908599238D-01
  0.6062000000D+02 -0.5965497619D-01
  0.2142000000D+02 -0.1400099441D+00
  0.7950000000D+01 -0.1767819294D+00
  0.2257000000D+01  0.1716249315D+00
  0.8815000000D+00  0.6050427585D+00
  0.3041000000D+00  0.3695118525D+00
 s   10  1.00
  0.1950000000D+05  0.0000000000D+00
  0.2923000000D+04  0.0000000000D+00
  0.6645000000D+03  0.0000000000D+00
  0.1875000000D+03  0.0000000000D+00
  0.6062000000D+02  0.0000000000D+00
  0.2142000000D+02  0.0000000000D+00
  0.7950000000D+01  0.0000000000D+00
  0.2257000000D+01  0.1000000000D+01
  0.8815000000D+00  0.0000000000D+00
  0.3041000000D+00  0.0000000000D+00
 s   10  1.00
  0.1950000000D+05  0.0000000000D+00
  0.2923000000D+04  0.0000000000D+00
  0.6645000000D+03  0.0000000000D+00
  0.1875000000D+03  0.0000000000D+00
  0.6062000000D+02  0.0000000000D+00
  0.2142000000D+02  0.0000000000D+00
  0.7950000000D+01  0.0000000000D+00
  0.2257000000D+01  0.0000000000D+00
  0.8815000000D+00  0.0000000000D+00
  0.3041000000D+00  0.1000000000D+01
 s    1  1.00
  0.9158000000D-01  0.1000000000D+01
 p    5  1.00
  0.4388000000D+02  0.1666500251D-01
  0.9926000000D+01  0.1044720157D+00
  0.2930000000D+01  0.3172600478D+00
  0.9132000000D+00  0.4873430734D+00
  0.2672000000D+00  0.3346040504D+00
 p    5  1.00
  0.4388000000D+02  0.0000000000D+00
  0.9926000000D+01  0.0000000000D+00
  0.2930000000D+01  0.0000000000D+00
  0.9132000000D+00  0.1000000000D+01
  0.2672000000D+00  0.0000000000D+00
 p    5  1.00
  0.4388000000D+02  0.0000000000D+00
  0.9926000000D+01  0.0000000000D+00
  0.2930000000D+01  0.0000000000D+00
  0.9132000000D+00  0.0000000000D+00
  0.2672000000D+00  0.1000000000D+01
 p    1  1.00
  0.7361000000D-01  0.1000000000D+01
 d    1  1.00
  0.3107000000D+01  0.1000000000D+01
 d    1  1.00
  0.8550000000D+00  0.1000000000D+01
 d    1  1.00
  0.2920000000D+00  0.1000000000D+01
 f    1  1.00
  0.1917000000D+01  0.1000000000D+01
 f    1  1.00
  0.7240000000D+00  0.1000000000D+01


[MO]
 Sym=      1.1
 Ene=     -26.4064
 Spin= Alpha
 Occup=    2.000000
1 0.000584190895134
2 0.002689738275230
3 -0.001381187459660
4 -0.001159699632851
5 0.0
6 0.0
7 -0.003095545330348
8 0.0
9 0.0
10 0.001951528833672
11 0.0
12 0.0
13 0.001130375784329
14 0.000223868488082
15 0.000223868488082
16 -0.000447736976164
17 0.0
18 0.0
19 0.0
20 0.000059160349573
21 0.000059160349573
22 -0.000118320699146
23 0.0
24 0.0
25 0.0
26 0.0
27 0.0
28 -0.000260961309738
29 0.0
30 0.0
31 0.000175058168421
32 0.0
33 0.0
34 0.000175058168421
35 0.0
36 0.99918733208210
37 -0.002229468364686
38 0.000742618455773
39 0.003683969728101
40 -0.001806086454514
41 0.0
42 0.0
43 -0.000497127368388
44 0.0
45 0.0
46 0.000411015022586
47 0.0
48 0.0
49 -0.000451957242432
50 0.0
51 0.0
52 0.000622046176672
53 0.000000541115929
54 0.000000541115929
55 -0.000001082231858
56 0.0
57 0.0
58 0.0
59 -0.000020458109441
60 -0.000020458109441
61 0.000040916218882
62 0.0
63 0.0
64 0.0
65 -0.000049120321024
66 -0.000049120321024
67 0.000098240642049
68 0.0
69 0.0
70 0.0
71 0.0
72 0.0
73 0.000032537940439
74 0.0
75 0.0
76 -0.000021827114001
77 0.0
78 0.0
79 -0.000021827114001
80 0.0
81 0.0
82 0.0
83 -0.000091760062382
84 0.0
85 0.0
86 0.000061554521131
87 0.0
88 0.0
89 0.000061554521131
90 0.0
 Sym=      2.1
 Ene=      -2.4727
 Spin= Alpha
 Occup=    2.000000
1 0.99753600778568
2 0.001157149670692
3 0.003498338532822
4 0.000055889567446
5 0.0
6 0.0
7 0.000539841118192
8 0.0
9 0.0
10 0.002832649502594
11 0.0
12 0.0
13 -0.000812367242220
14 -0.000114118788886
15 -0.000114118788886
16 0.000228237577772
17 0.0
18 0.0
19 0.0
20 -0.000636147784291
21 -0.000636147784291
22 0.001272295568582
23 0.0
24 0.0
25 0.0
26 0.0
27 0.0
28 0.000480317533154
29 0.0
30 0.0
31 -0.000322206796475
32 0.0
33 0.0
34 -0.000322206796475
35 0.0
36 -0.000592106913240
37 0.029132207985662
38 -0.000304260770973
39 -0.000598607909465
40 -0.006122333357252
41 0.0
42 0.0
43 -0.009840418200875
44 0.0
45 0.0
46 -0.000692464808188
47 0.0
48 0.0
49 0.001097718209731
50 0.0
51 0.0
52 0.001380696959402
53 -0.000174984190262
54 -0.000174984190262
55 0.000349968380524
56 0.0
57 0.0
58 0.0
59 -0.000858161701990
60 -0.000858161701990
61 0.001716323403980
62 0.0
63 0.0
64 0.0
65 -0.000377129080816
66 -0.000377129080816
67 0.000754258161632
68 0.0
69 0.0
70 0.0
71 0.0
72 0.0
73 -0.000177345500354
74 0.0
75 0.0
76 0.000118966978288
77 0.0
78 0.0
79 0.000118966978288
80 0.0
81 0.0
82 0.0
83 -0.000740307380088
84 0.0
85 0.0
86 0.000496613287837
87 0.0
88 0.0
89 0.000496613287837
90 0.0
 Sym=      3.1
 Ene=      -1.6182
 Spin= Alpha
 Occup=    2.000000
1 -0.051550056762154
2 0.10700167186323
3 -0.022279807781457
4 -0.055203433385282
5 0.0
6 0.0
7 0.070882013199965
8 0.0
9 0.0
10 -0.018096609035395
11 0.0
12 0.0
13 -0.030602137584156
14 -0.003715608923333
15 -0.003715608923333
16 0.007431217846667
17 0.0
18 0.0
19 0.0
20 -0.002601491791637
21 -0.002601491791637
22 0.005202983583274
23 0.0
24 0.0
25 0.0
26 0.0
27 0.0
28 0.003259735316054
29 0.0
30 0.0
31 -0.002186696926606
32 0.0
33 0.0
34 -0.002186696926606
35 0.0
36 -0.001149531899432
37 0.98796794673120
38 -0.001445828643570
39 0.003153480745337
40 -0.035395897104271
41 0.0
42 0.0
43 -0.023614468273379
44 0.0
45 0.0
46 -0.004774258267175
47 0.0
48 0.0
49 -0.007107379066222
50 0.0
51 0.0
52 0.010815008460108
53 -0.000050004386384
54 -0.000050004386384
55 0.000100008772768
56 0.0
57 0.0
58 0.0
59 -0.001975774621011
60 -0.001975774621011
61 0.003951549242022
62 0.0
63 0.0
64 0.0
65 -0.002900691878445
66 -0.002900691878445
67 0.005801383756890
68 0.0
69 0.0
70 0.0
71 0.0
72 0.0
73 0.000476034714504
74 0.0
75 0.0
76 -0.000319333794384
77 0.0
78 0.0
79 -0.000319333794384
80 0.0
81 0.0
82 0.0
83 -0.003395714896690
84 0.0
85 0.0
86 0.002277914802363
87 0.0
88 0.0
89 0.002277914802363
90 0.0
 Sym=      4.1
 Ene=      -0.6505
 Spin= Alpha
 Occup=    1.750000
1 0.0
2 0.0
3 0.0
4 0.0
5 0.0
6 0.070383351814525
7 0.0
8 0.0
9 -0.048946056142494
10 0.0
11 0.0
12 -0.023940882274576
13 0.0
14 0.0
15 0.0
16 0.0
17 0.0
18 0.0
19 -0.000175495834335
20 0.0
21 0.0
22 0.0
23 0.0
24 0.0
25 -0.005353385653035
26 0.0
27 0.003824306994173
28 0.0
29 0.0
30 0.001710282081160
31 0.0
32 0.0
33 -0.006841128324640
34 0.0
35 0.0
36 0.0
37 0.0
38 0.0
39 0.0
40 0.0
41 0.0
42 0.97367971107918
43 0.0
44 0.0
45 0.004306371824344
46 0.0
47 0.0
48 0.018867658625928
49 0.0
50 0.0
51 0.029939284893086
52 0.0
53 0.0
54 0.0
55 0.0
56 0.0
57 0.0
58 -0.001049870353423
59 0.0
60 0.0
61 0.0
62 0.0
63 0.0
64 -0.005973390567740
65 0.0
66 0.0
67 0.0
68 0.0
69 0.0
70 -0.017276257473012
71 0.0
72 0.000330362073612
73 0.0
74 0.0
75 0.000147742410757
76 0.0
77 0.0
78 -0.000590969643027
79 0.0
80 0.0
81 0.0
82 -0.003425819860387
83 0.0
84 0.0
85 -0.001532073217299
86 0.0
87 0.0
88 0.006128292869195
89 0.0
90 0.0
 Sym=      7.1
 Ene=      -0.0404
 Spin= Alpha
 Occup=    0.750002
1 0.006465596494261
2 0.85717473579199
3 -0.039251471318150
4 0.19229020980648
5 0.0
6 0.0
7 -0.47058636048117
8 0.0
9 0.0
10 0.096932033888119
11 0.0
12 0.0
13 0.14210768888124
14 0.004171575349664
15 0.004171575349664
16 -0.008343150699329
17 0.0
18 0.0
19 0.0
20 0.006028331767325
21 0.006028331767325
22 -0.012056663534650
23 0.0
24 0.0
25 0.0
26 0.0
27 0.0
28 -0.002442080331654
29 0.0
30 0.0
31 0.001638197288428
32 0.0
33 0.0
34 0.001638197288428
35 0.0
36 -0.001475138623091
37 -0.072447082980963
38 -0.001263646595821
39 -0.045243930202165
40 -0.059296415260216
41 0.0
42 0.0
43 0.031233833046731
44 0.0
45 0.0
46 0.000993964439179
47 0.0
48 0.0
49 0.012331417565898
50 0.0
51 0.0
52 0.005063713114272
53 0.000131555475060
54 0.000131555475060
55 -0.000263110950119
56 0.0
57 0.0
58 0.0
59 0.001201889531153
60 0.001201889531153
61 -0.002403779062305
62 0.0
63 0.0
64 0.0
65 0.001852207865304
66 0.001852207865304
67 -0.003704415730608
68 0.0
69 0.0
70 0.0
71 0.0
72 0.0
73 -0.000075063748600
74 0.0
75 0.0
76 0.000050354293355
77 0.0
78 0.0
79 0.000050354293355
80 0.0
81 0.0
82 0.0
83 0.001703636124724
84 0.0
85 0.0
86 -0.001142833855142
87 0.0
88 0.0
89 -0.001142833855142
90 0.0
 Sym=      5.1
 Ene=      -0.6505
 Spin= Alpha
 Occup=    1.750000
1 0.0
2 0.0
3 0.0
4 0.0
5 0.070383351814521
6 0.0
7 0.0
8 -0.048946056142499
9 0.0
10 0.0
11 -0.023940882274573
12 0.0
13 0.0
14 0.0
15 0.0
16 0.0
17 0.0
18 -0.000175495834337
19 0.0
20 0.0
21 0.0
22 0.0
23 0.0
24 -0.005353385653039
25 0.0
26 0.003824306994173
27 0.0
28 0.0
29 0.001710282081160
30 0.0
31 0.0
32 -0.006841128324639
33 0.0
34 0.0
35 0.0
36 0.0
37 0.0
38 0.0
39 0.0
40 0.0
41 0.97367971107918
42 0.0
43 0.0
44 0.004306371824342
45 0.0
46 0.0
47 0.018867658625933
48 0.0
49 0.0
50 0.029939284893093
51 0.0
52 0.0
53 0.0
54 0.0
55 0.0
56 0.0
57 -0.001049870353423
58 0.0
59 0.0
60 0.0
61 0.0
62 0.0
63 -0.005973390567739
64 0.0
65 0.0
66 0.0
67 0.0
68 0.0
69 -0.017276257473014
70 0.0
71 0.000330362073612
72 0.0
73 0.0
74 0.000147742410757
75 0.0
76 0.0
77 -0.000590969643027
78 0.0
79 0.0
80 0.0
81 -0.003425819860387
82 0.0
83 0.0
84 -0.001532073217299
85 0.0
86 0.0
87 0.006128292869195
88 0.0
89 0.0
90 0.0
 Sym=      6.1
 Ene=      -0.6683
 Spin= Alpha
 Occup=    1.749999
1 0.025112288751729
2 -0.35716725774028
3 0.099069659032349
4 0.19547306342376
5 0.0
6 0.0
7 -0.32507064082726
8 0.0
9 0.0
10 0.12164843276103
11 0.0
12 0.0
13 0.13189210681099
14 0.017016182518537
15 0.017016182518537
16 -0.034032365037075
17 0.0
18 0.0
19 0.0
20 0.009100133856077
21 0.009100133856077
22 -0.018200267712153
23 0.0
24 0.0
25 0.0
26 0.0
27 0.0
28 -0.018636974622905
29 0.0
30 0.0
31 0.012502062645526
32 0.0
33 0.0
34 0.012502062645526
35 0.0
36 0.000916775383368
37 0.052095793920322
38 0.002064856685204
39 0.031157046334107
40 0.097619050984206
41 0.0
42 0.0
43 0.96957412680576
44 0.0
45 0.0
46 0.007642116622943
47 0.0
48 0.0
49 -0.002715934729108
50 0.0
51 0.0
52 0.005942329516076
53 0.000600198268275
54 0.000600198268275
55 -0.001200396536549
56 0.0
57 0.0
58 0.0
59 0.004099543035851
60 0.004099543035851
61 -0.008199086071701
62 0.0
63 0.0
64 0.0
65 0.009422504125379
66 0.009422504125379
67 -0.018845008250759
68 0.0
69 0.0
70 0.0
71 0.0
72 0.0
73 -0.000937510665447
74 0.0
75 0.0
76 0.000628901273271
77 0.0
78 0.0
79 0.000628901273271
80 0.0
81 0.0
82 0.0
83 0.007932159936926
84 0.0
85 0.0
86 -0.005321054648210
87 0.0
88 0.0
89 -0.005321054648210
90 0.0
 Sym=      8.1
 Ene=       0.0366
 Spin= Alpha
 Occup=   -0.000000
1 0.0
2 0.0
3 0.0
4 0.0
5 0.36030081969143
6 0.0
7 0.0
8 -0.32817484379386
9 0.0
10 0.0
11 0.95663240076581
12 0.0
13 0.0
14 0.0
15 0.0
16 0.0
17 0.0
18 -0.014069851877992
19 0.0
20 0.0
21 0.0
22 0.0
23 0.0
24 -0.002472311438172
25 0.0
26 0.007657717172825
27 0.0
28 0.0
29 0.003424635230181
30 0.0
31 0.0
32 -0.013698540920723
33 0.0
34 0.0
35 0.0
36 0.0
37 0.0
38 0.0
39 0.0
40 0.0
41 -0.070426498903096
42 0.0
43 0.0
44 -0.003928789512282
45 0.0
46 0.0
47 0.004297311637686
48 0.0
49 0.0
50 -0.038080106863507
51 0.0
52 0.0
53 0.0
54 0.0
55 0.0
56 0.0
57 -0.000387571795380
58 0.0
59 0.0
60 0.0
61 0.0
62 0.0
63 0.000583464329777
64 0.0
65 0.0
66 0.0
67 0.0
68 0.0
69 -0.006017157981243
70 0.0
71 -0.000140370230931
72 0.0
73 0.0
74 -0.000062775475676
75 0.0
76 0.0
77 0.000251101902703
78 0.0
79 0.0
80 0.0
81 0.000425513518902
82 0.0
83 0.0
84 0.000190295430722
85 0.0
86 0.0
87 -0.000761181722889
88 0.0
89 0.0
90 0.0
 Sym=      9.1
 Ene=       0.0366
 Spin= Alpha
 Occup=   -0.000000
1 0.0
2 0.0
3 0.0
4 0.0
5 0.0
6 -0.36030081969143
7 0.0
8 0.0
9 0.32817484379386
10 0.0
11 0.0
12 -0.95663240076581
13 0.0
14 0.0
15 0.0
16 0.0
17 0.0
18 0.0
19 0.014069851877990
20 0.0
21 0.0
22 0.0
23 0.0
24 0.0
25 0.002472311438170
26 0.0
27 -0.007657717172823
28 0.0
29 0.0
30 -0.003424635230180
31 0.0
32 0.0
33 0.013698540920721
34 0.0
35 0.0
36 0.0
37 0.0
38 0.0
39 0.0
40 0.0
41 0.0
42 0.070426498903095
43 0.0
44 0.0
45 0.003928789512282
46 0.0
47 0.0
48 -0.004297311637686
49 0.0
50 0.0
51 0.038080106863514
52 0.0
53 0.0
54 0.0
55 0.0
56 0.0
57 0.0
58 0.000387571795380
59 0.0
60 0.0
61 0.0
62 0.0
63 0.0
64 -0.000583464329777
65 0.0
66 0.0
67 0.0
68 0.0
69 0.0
70 0.006017157981242
71 0.0
72 0.000140370230931
73 0.0
74 0.0
75 0.000062775475676
76 0.0
77 0.0
78 -0.000251101902703
79 0.0
80 0.0
81 0.0
82 -0.000425513518903
83 0.0
84 0.0
85 -0.000190295430722
86 0.0
87 0.0
88 0.000761181722889
89 0.0
90 0.0
 Sym=     10.1
 Ene=       0.0422
 Spin= Alpha
 Occup=   -0.000000
1 -0.017147590020204
2 -0.065028063148283
3 -0.93277589071071
4 0.44109868408421
5 0.0
6 0.0
7 -0.19142655934705
8 0.0
9 0.0
10 -0.64388413646149
11 0.0
12 0.0
13 1.44717582828769
14 0.026767262193637
15 0.026767262193637
16 -0.053534524387274
17 0.0
18 0.0
19 0.0
20 0.044201159654061
21 0.044201159654061
22 -0.088402319308121
23 0.0
24 0.0
25 0.0
26 0.0
27 0.0
28 -0.015020111144108
29 0.0
30 0.0
31 0.010075796864348
32 0.0
33 0.0
34 0.010075796864348
35 0.0
36 -0.003112850754446
37 -0.073687631815233
38 -0.000603183256167
39 -0.036570729013103
40 0.72576912157183
41 0.0
42 0.0
43 -0.023188946579995
44 0.0
45 0.0
46 0.007714036715971
47 0.0
48 0.0
49 -0.053526895745353
50 0.0
51 0.0
52 -0.39341959800945
53 -0.000216428714928
54 -0.000216428714928
55 0.000432857429857
56 0.0
57 0.0
58 0.0
59 0.002378189507313
60 0.002378189507313
61 -0.004756379014626
62 0.0
63 0.0
64 0.0
65 -0.013101173828240
66 -0.013101173828240
67 0.026202347656480
68 0.0
69 0.0
70 0.0
71 0.0
72 0.0
73 0.000678798249021
74 0.0
75 0.0
76 -0.000455351708346
77 0.0
78 0.0
79 -0.000455351708346
80 0.0
81 0.0
82 0.0
83 -0.002439108056693
84 0.0
85 0.0
86 0.001636203425770
87 0.0
88 0.0
89 0.001636203425770
90 0.0
 Sym=     11.1
 Ene=       0.1157
 Spin= Alpha
 Occup=   -0.000000
1 -0.011552023297734
2 -0.54442572428193
3 1.24681800640786
4 2.07320053697017
5 0.0
6 0.0
7 0.82790571446916
8 0.0
9 0.0
10 2.44642106370211
11 0.0
12 0.0
13 -1.32123866615365
14 -0.012861856956756
15 -0.012861856956756
16 0.025723713913513
17 0.0
18 0.0
19 0.0
20 -0.36578147943542
21 -0.36578147943542
22 0.73156295887084
23 0.0
24 0.0
25 0.0
26 0.0
27 0.0
28 0.12393045485201
29 0.0
30 0.0
31 -0.083135076459471
32 0.0
33 0.0
34 -0.083135076459471
35 0.0
36 -0.018433369001258
37 -0.10877901249262
38 0.007440723408594
39 0.13740330418921
40 -3.37643559362712
41 0.0
42 0.0
43 -0.038860136195592
44 0.0
45 0.0
46 -0.004853025965652
47 0.0
48 0.0
49 0.044248336605831
50 0.0
51 0.0
52 0.58447608088379
53 -0.000212826326398
54 -0.000212826326398
55 0.000425652652796
56 0.0
57 0.0
58 0.0
59 0.001191411184729
60 0.001191411184729
61 -0.002382822369458
62 0.0
63 0.0
64 0.0
65 0.001117850636286
66 0.001117850636286
67 -0.002235701272572
68 0.0
69 0.0
70 0.0
71 0.0
72 0.0
73 -0.001621534229045
74 0.0
75 0.0
76 0.001087758229196
77 0.0
78 0.0
79 0.001087758229196
80 0.0
81 0.0
82 0.0
83 0.005042830419630
84 0.0
85 0.0
86 -0.003382833485189
87 0.0
88 0.0
89 -0.003382833485189
90 0.0
 Sym=     12.1
 Ene=       0.1370
 Spin= Alpha
 Occup=   -0.000000
1 0.0
2 0.0
3 0.0
4 0.0
5 -0.46848451349255
6 0.0
7 0.0
8 -1.44303775135086
9 0.0
10 0.0
11 1.18777198490131
12 0.0
13 0.0
14 0.0
15 0.0
16 0.0
17 0.0
18 -0.048198303065131
19 0.0
20 0.0
21 0.0
22 0.0
23 0.0
24 -0.056022751533542
25 0.0
26 0.034980332808938
27 0.0
28 0.0
29 0.015643680407270
30 0.0
31 0.0
32 -0.062574721629081
33 0.0
34 0.0
35 0.0
36 0.0
37 0.0
38 0.0
39 0.0
40 0.0
41 0.11351105757792
42 0.0
43 0.0
44 -0.008709465699873
45 0.0
46 0.0
47 0.079199356139671
48 0.0
49 0.0
50 0.40393825889664
51 0.0
52 0.0
53 0.0
54 0.0
55 0.0
56 0.0
57 0.000170653515634
58 0.0
59 0.0
60 0.0
61 0.0
62 0.0
63 0.013028354323985
64 0.0
65 0.0
66 0.0
67 0.0
68 0.0
69 -0.037813147141782
70 0.0
71 0.000132734063986
72 0.0
73 0.0
74 0.000059360478001
75 0.0
76 0.0
77 -0.000237441912003
78 0.0
79 0.0
80 0.0
81 -0.000243193800879
82 0.0
83 0.0
84 -0.000108759574094
85 0.0
86 0.0
87 0.000435038296378
88 0.0
89 0.0
90 0.0
 Sym=     13.1
 Ene=       0.1370
 Spin= Alpha
 Occup=   -0.000000
1 0.0
2 0.0
3 0.0
4 0.0
5 0.0
6 0.46848451349253
7 0.0
8 0.0
9 1.44303775135088
10 0.0
11 0.0
12 -1.18777198490131
13 0.0
14 0.0
15 0.0
16 0.0
17 0.0
18 0.0
19 0.048198303065124
20 0.0
21 0.0
22 0.0
23 0.0
24 0.0
25 0.056022751533560
26 0.0
27 -0.034980332808935
28 0.0
29 0.0
30 -0.015643680407269
31 0.0
32 0.0
33 0.062574721629076
34 0.0
35 0.0
36 0.0
37 0.0
38 0.0
39 0.0
40 0.0
41 0.0
42 -0.11351105757792
43 0.0
44 0.0
45 0.008709465699873
46 0.0
47 0.0
48 -0.079199356139669
49 0.0
50 0.0
51 -0.40393825889665
52 0.0
53 0.0
54 0.0
55 0.0
56 0.0
57 0.0
58 -0.000170653515634
59 0.0
60 0.0
61 0.0
62 0.0
63 0.0
64 -0.013028354323985
65 0.0
66 0.0
67 0.0
68 0.0
69 0.0
70 0.037813147141779
71 0.0
72 -0.000132734063986
73 0.0
74 0.0
75 -0.000059360478001
76 0.0
77 0.0
78 0.000237441912003
79 0.0
80 0.0
81 0.0
82 0.000243193800879
83 0.0
84 0.0
85 0.000108759574095
86 0.0
87 0.0
88 -0.000435038296378
89 0.0
90 0.0
 Sym=     14.1
 Ene=       0.1892
 Spin= Alpha
 Occup=   -0.000000
1 0.087053946785908
2 1.02152360384606
3 1.81798351956885
4 -1.75107544867332
5 0.0
6 0.0
7 0.74261742131796
8 0.0
9 0.0
10 0.92945370425553
11 0.0
12 0.0
13 -1.05083102474090
14 -0.10077238587363
15 -0.10077238587363
16 0.20154477174725
17 0.0
18 0.0
19 0.0
20 0.31013951553014
21 0.31013951553014
22 -0.62027903106029
23 0.0
24 0.0
25 0.0
26 0.0
27 0.0
28 -0.025068098363871
29 0.0
30 0.0
31 0.016816191602480
32 0.0
33 0.0
34 0.016816191602480
35 0.0
36 0.012407183358563
37 -0.079477619183613
38 -0.009891584217171
39 -0.27594548347854
40 -0.66693451552140
41 0.0
42 0.0
43 0.10885234105080
44 0.0
45 0.0
46 -0.025790291829365
47 0.0
48 0.0
49 0.24641161654364
50 0.0
51 0.0
52 0.55420014227464
53 0.000570697663871
54 0.000570697663871
55 -0.001141395327742
56 0.0
57 0.0
58 0.0
59 -0.002321515495612
60 -0.002321515495612
61 0.004643030991225
62 0.0
63 0.0
64 0.0
65 0.039921586429663
66 0.039921586429663
67 -0.079843172859325
68 0.0
69 0.0
70 0.0
71 0.0
72 0.0
73 -0.001177762779092
74 0.0
75 0.0
76 0.000790067290626
77 0.0
78 0.0
79 0.000790067290626
80 0.0
81 0.0
82 0.0
83 0.007357575671958
84 0.0
85 0.0
86 -0.004935611805629
87 0.0
88 0.0
89 -0.004935611805629
90 0.0
 Sym=     15.1
 Ene=       0.1973
 Spin= Alpha
 Occup=   -0.000000
1 0.000755569343206
2 0.34872476818941
3 3.73869079833818
4 -1.26757256711860
5 0.0
6 0.0
7 0.79614119562474
8 0.0
9 0.0
10 0.81874360104749
11 0.0
12 0.0
13 -1.02637041665433
14 0.047068085218064
15 0.047068085218064
16 -0.094136170436127
17 0.0
18 0.0
19 0.0
20 -0.19895068095276
21 -0.19895068095276
22 0.39790136190552
23 0.0
24 0.0
25 0.0
26 0.0
27 0.0
28 -0.13858583929628
29 0.0
30 0.0
31 0.092966207215606
32 0.0
33 0.0
34 0.092966207215606
35 0.0
36 -0.014754871349551
37 -0.15526900587400
38 0.000657875402135
39 0.18816613270585
40 -2.34976514356967
41 0.0
42 0.0
43 -0.12369918329336
44 0.0
45 0.0
46 0.005213175251880
47 0.0
48 0.0
49 -0.096117013995927
50 0.0
51 0.0
52 2.28219011899092
53 0.001634023523544
54 0.001634023523544
55 -0.003268047047089
56 0.0
57 0.0
58 0.0
59 -0.016553311436743
60 -0.016553311436743
61 0.033106622873486
62 0.0
63 0.0
64 0.0
65 0.063113828864859
66 0.063113828864859
67 -0.12622765772972
68 0.0
69 0.0
70 0.0
71 0.0
72 0.0
73 -0.002764333705890
74 0.0
75 0.0
76 0.001854371423659
77 0.0
78 0.0
79 0.001854371423659
80 0.0
81 0.0
82 0.0
83 0.009532551411146
84 0.0
85 0.0
86 -0.006394629886300
87 0.0
88 0.0
89 -0.006394629886300
90 0.0
 Sym=     16.1
 Ene=       0.2089
 Spin= Alpha
 Occup=   -0.000000
1 0.0
2 0.0
3 0.0
4 0.0
5 0.0
6 0.0
7 0.0
8 0.0
9 0.0
10 0.0
11 0.0
12 0.0
13 0.0
14 0.14714313508637
15 -0.14714313508637
16 0.0
17 0.0
18 0.0
19 0.0
20 -0.96015499389462
21 0.96015499389462
22 0.0
23 0.0
24 0.0
25 0.0
26 0.0
27 0.0
28 0.0
29 0.0
30 0.0
31 -0.020261845417475
32 0.0
33 0.0
34 0.020261845417475
35 0.0
36 0.0
37 0.0
38 0.0
39 0.0
40 0.0
41 0.0
42 0.0
43 0.0
44 0.0
45 0.0
46 0.0
47 0.0
48 0.0
49 0.0
50 0.0
51 0.0
52 0.0
53 -0.000475895555212
54 0.000475895555212
55 0.0
56 0.0
57 0.0
58 0.0
59 -0.008967967521365
60 0.008967967521365
61 0.0
62 0.0
63 0.0
64 0.0
65 0.008950423358989
66 -0.008950423358989
67 0.0
68 0.0
69 0.0
70 0.0
71 0.0
72 0.0
73 0.0
74 0.0
75 0.0
76 -0.000646383609899
77 0.0
78 0.0
79 0.000646383609899
80 0.0
81 0.0
82 0.0
83 0.0
84 0.0
85 0.0
86 0.003251796092520
87 0.0
88 0.0
89 -0.003251796092520
90 0.0
 Sym=     17.1
 Ene=       0.2089
 Spin= Alpha
 Occup=   -0.000000
1 0.0
2 0.0
3 0.0
4 0.0
5 0.0
6 0.0
7 0.0
8 0.0
9 0.0
10 0.0
11 0.0
12 0.0
13 0.0
14 0.0
15 0.0
16 0.0
17 -0.16990625730304
18 0.0
19 0.0
20 0.0
21 0.0
22 0.0
23 1.10869148837764
24 0.0
25 0.0
26 0.0
27 0.0
28 0.0
29 0.0
30 0.0
31 0.0
32 0.0
33 0.0
34 0.0
35 0.023396363812123
36 0.0
37 0.0
38 0.0
39 0.0
40 0.0
41 0.0
42 0.0
43 0.0
44 0.0
45 0.0
46 0.0
47 0.0
48 0.0
49 0.0
50 0.0
51 0.0
52 0.0
53 0.0
54 0.0
55 0.0
56 0.000549516853816
57 0.0
58 0.0
59 0.0
60 0.0
61 0.0
62 0.010355316925087
63 0.0
64 0.0
65 0.0
66 0.0
67 0.0
68 -0.010335058671349
69 0.0
70 0.0
71 0.0
72 0.0
73 0.0
74 0.0
75 0.0
76 0.0
77 0.0
78 0.0
79 0.0
80 0.000746379502350
81 0.0
82 0.0
83 0.0
84 0.0
85 0.0
86 0.0
87 0.0
88 0.0
89 0.0
90 -0.003754850698732
 Sym=     18.1
 Ene=       0.2172
 Spin= Alpha
 Occup=   -0.000000
1 0.0
2 0.0
3 0.0
4 0.0
5 -0.33647242530478
6 0.0
7 0.0
8 -0.59452648010144
9 0.0
10 0.0
11 -0.071241022629207
12 0.0
13 0.0
14 0.0
15 0.0
16 0.0
17 0.0
18 -0.19987664841698
19 0.0
20 0.0
21 0.0
22 0.0
23 0.0
24 0.11513686209556
25 0.0
26 0.11186784067302
27 0.0
28 0.0
29 0.050028819248199
30 0.0
31 0.0
32 -0.20011527699280
33 0.0
34 0.0
35 0.0
36 0.0
37 0.0
38 0.0
39 0.0
40 0.0
41 -0.22185022690116
42 0.0
43 0.0
44 0.023698012807815
45 0.0
46 0.0
47 -0.11353414007091
48 0.0
49 0.0
50 1.61520721884932
51 0.0
52 0.0
53 0.0
54 0.0
55 0.0
56 0.0
57 -0.002385887559988
58 0.0
59 0.0
60 0.0
61 0.0
62 0.0
63 0.025339678728628
64 0.0
65 0.0
66 0.0
67 0.0
68 0.0
69 -0.12174902877048
70 0.0
71 0.001825413223146
72 0.0
73 0.0
74 0.000816349610796
75 0.0
76 0.0
77 -0.003265398443186
78 0.0
79 0.0
80 0.0
81 -0.006211518873545
82 0.0
83 0.0
84 -0.002777875688954
85 0.0
86 0.0
87 0.011111502755816
88 0.0
89 0.0
90 0.0
 Sym=     19.1
 Ene=       0.2172
 Spin= Alpha
 Occup=   -0.000000
1 0.0
2 0.0
3 0.0
4 0.0
5 0.0
6 0.33647242530475
7 0.0
8 0.0
9 0.59452648010145
10 0.0
11 0.0
12 0.071241022629209
13 0.0
14 0.0
15 0.0
16 0.0
17 0.0
18 0.0
19 0.19987664841697
20 0.0
21 0.0
22 0.0
23 0.0
24 0.0
25 -0.11513686209558
26 0.0
27 -0.11186784067302
28 0.0
29 0.0
30 -0.050028819248197
31 0.0
32 0.0
33 0.20011527699279
34 0.0
35 0.0
36 0.0
37 0.0
38 0.0
39 0.0
40 0.0
41 0.0
42 0.22185022690116
43 0.0
44 0.0
45 -0.023698012807818
46 0.0
47 0.0
48 0.11353414007092
49 0.0
50 0.0
51 -1.61520721884930
52 0.0
53 0.0
54 0.0
55 0.0
56 0.0
57 0.0
58 0.002385887559987
59 0.0
60 0.0
61 0.0
62 0.0
63 0.0
64 -0.025339678728627
65 0.0
66 0.0
67 0.0
68 0.0
69 0.0
70 0.12174902877047
71 0.0
72 -0.001825413223146
73 0.0
74 0.0
75 -0.000816349610796
76 0.0
77 0.0
78 0.003265398443186
79 0.0
80 0.0
81 0.0
82 0.006211518873545
83 0.0
84 0.0
85 0.002777875688954
86 0.0
87 0.0
88 -0.011111502755815
89 0.0
90 0.0
 Sym=     20.1
 Ene=       0.2838
 Spin= Alpha
 Occup=   -0.000000
1 0.0
2 0.0
3 0.0
4 0.0
5 0.0
6 -0.078687944984859
7 0.0
8 0.0
9 -2.28903135050413
10 0.0
11 0.0
12 0.057802125900519
13 0.0
14 0.0
15 0.0
16 0.0
17 0.0
18 0.0
19 0.13010470843235
20 0.0
21 0.0
22 0.0
23 0.0
24 0.0
25 -2.36460658972791
26 0.0
27 0.14048364259949
28 0.0
29 0.0
30 0.062826194915850
31 0.0
32 0.0
33 -0.25130477966340
34 0.0
35 0.0
36 0.0
37 0.0
38 0.0
39 0.0
40 0.0
41 0.0
42 -0.017885702933162
43 0.0
44 0.0
45 0.005879444611870
46 0.0
47 0.0
48 -0.007596740956764
49 0.0
50 0.0
51 3.18477931168153
52 0.0
53 0.0
54 0.0
55 0.0
56 0.0
57 0.0
58 -0.001341008770179
59 0.0
60 0.0
61 0.0
62 0.0
63 0.0
64 0.026465305615310
65 0.0
66 0.0
67 0.0
68 0.0
69 0.0
70 -0.072904278212339
71 0.0
72 -0.001371667810067
73 0.0
74 0.0
75 -0.000613428493172
76 0.0
77 0.0
78 0.002453713972687
79 0.0
80 0.0
81 0.0
82 0.004732256863619
83 0.0
84 0.0
85 0.002116329606809
86 0.0
87 0.0
88 -0.008465318427234
89 0.0
90 0.0
 Sym=     21.1
 Ene=       0.2838
 Spin= Alpha
 Occup=   -0.000000
1 0.0
2 0.0
3 0.0
4 0.0
5 0.078687944985059
6 0.0
7 0.0
8 2.28903135050399
9 0.0
10 0.0
11 -0.057802125900589
12 0.0
13 0.0
14 0.0
15 0.0
16 0.0
17 0.0
18 -0.13010470843234
19 0.0
20 0.0
21 0.0
22 0.0
23 0.0
24 2.36460658972790
25 0.0
26 -0.14048364259949
27 0.0
28 0.0
29 -0.062826194915851
30 0.0
31 0.0
32 0.25130477966340
33 0.0
34 0.0
35 0.0
36 0.0
37 0.0
38 0.0
39 0.0
40 0.0
41 0.017885702933160
42 0.0
43 0.0
44 -0.005879444611866
45 0.0
46 0.0
47 0.007596740956747
48 0.0
49 0.0
50 -3.18477931168151
51 0.0
52 0.0
53 0.0
54 0.0
55 0.0
56 0.0
57 0.001341008770179
58 0.0
59 0.0
60 0.0
61 0.0
62 0.0
63 -0.026465305615312
64 0.0
65 0.0
66 0.0
67 0.0
68 0.0
69 0.072904278212347
70 0.0
71 0.001371667810067
72 0.0
73 0.0
74 0.000613428493172
75 0.0
76 0.0
77 -0.002453713972686
78 0.0
79 0.0
80 0.0
81 -0.004732256863619
82 0.0
83 0.0
84 -0.002116329606808
85 0.0
86 0.0
87 0.008465318427233
88 0.0
89 0.0
90 0.0
 Sym=     22.1
 Ene=       0.3045
 Spin= Alpha
 Occup=   -0.000000
1 0.20606105875422
2 1.64499301313635
3 1.05237718803459
4 0.22602675108229
5 0.0
6 0.0
7 -0.24111563120069
8 0.0
9 0.0
10 3.82807509092274
11 0.0
12 0.0
13 -0.15534643533974
14 -0.008781004959740
15 -0.008781004959740
16 0.017562009919480
17 0.0
18 0.0
19 0.0
20 -1.20052872733802
21 -1.20052872733802
22 2.40105745467604
23 0.0
24 0.0
25 0.0
26 0.0
27 0.0
28 0.27783438708543
29 0.0
30 0.0
31 -0.18637697280300
32 0.0
33 0.0
34 -0.18637697280300
35 0.0
36 0.014917812518701
37 0.017887082335601
38 -0.007194184430516
39 -0.27286374305697
40 -4.69920210047972
41 0.0
42 0.0
43 0.096508771073323
44 0.0
45 0.0
46 -0.046230650394495
47 0.0
48 0.0
49 0.31743240995284
50 0.0
51 0.0
52 -1.26583609674732
53 -0.000136473457742
54 -0.000136473457742
55 0.000272946915484
56 0.0
57 0.0
58 0.0
59 0.010135786703011
60 0.010135786703011
61 -0.020271573406022
62 0.0
63 0.0
64 0.0
65 -0.012107605527979
66 -0.012107605527979
67 0.024215211055957
68 0.0
69 0.0
70 0.0
71 0.0
72 0.0
73 -0.000858556892234
74 0.0
75 0.0
76 0.000575937472076
77 0.0
78 0.0
79 0.000575937472076
80 0.0
81 0.0
82 0.0
83 0.004890656865471
84 0.0
85 0.0
86 -0.003280752361746
87 0.0
88 0.0
89 -0.003280752361746
90 0.0
 Sym=     23.1
 Ene=       0.4133
 Spin= Alpha
 Occup=   -0.000000
1 -0.025106138041324
2 -0.33799779968301
3 -5.38092517241088
4 -0.26191077103150
5 0.0
6 0.0
7 -0.051797514731184
8 0.0
9 0.0
10 -4.04412986621383
11 0.0
12 0.0
13 0.85606697580148
14 0.21496675105877
15 0.21496675105877
16 -0.42993350211755
17 0.0
18 0.0
19 0.0
20 0.30922454798718
21 0.30922454798718
22 -0.61844909597436
23 0.0
24 0.0
25 0.0
26 0.0
27 0.0
28 -0.38431680219704
29 0.0
30 0.0
31 0.25780754838238
32 0.0
33 0.0
34 0.25780754838238
35 0.0
36 0.023642728036952
37 -0.17833683712670
38 -0.022235181239411
39 -0.66443421525873
40 7.55643381382950
41 0.0
42 0.0
43 0.070818011717769
44 0.0
45 0.0