[Molden Format]
[Molpro variables]
_NUMVAR=  891.0000000000000    
_AVOGAD= 0.6022136736000000E+24
_BOLTZ= 0.1380658000000000E-22
_CLIGHT=  29979245800.00000    
_EV= 0.3674932379085202E-01
_ENULL= 0.8854187817000000E-11
_KJOULE= 0.3808798324128737E-03
_KJOULE/MOL= 0.3808798324128737E-03
_CM= 0.4556335267302901E-05
_CM-1= 0.4556335267302901E-05
_DEB2SI= 0.3335641000000000E-29
_AMU2AU=  1822.888390000000    
_KCAL= 0.1593601117815568E-02
_KCAL/MOL= 0.1593601117815568E-02
_KELVIN= 0.3166811411060229E-05
_JOULE= 0.4359748200000000E-17
_HERTZ= 0.1519829846004524E-15
_HZ= 0.1519829846004524E-15
_JPCAL=  4.184000000000000    
_PLANCK= 0.6626075540000000E-33
_TOA= 0.5291772109200000    
_TOANG= 0.5291772109200000    
_TORAD= 0.1745329251994330E-01
_TOCM=  219474.6306700000    
_TODEBYE=  2.541580000000000    
_TOE= 0.4803242000000000E-09
_TOEV=  27.21138505000000    
_TOHERTZ=  6579683920729000.    
_TOHZ=  6579683920729000.    
_TOK=  315775.0400000000    
_TOKCAL=  627.5096000000000    
_TOKELVIN=  315775.0400000000    
_TOKJ=  2625.500000000000    
_TOKJOULE=  2625.500000000000    
_TOKG= 0.1660565586000000E-26
_ANG=  1.889726124565062    
_ANGSTROM=  1.889726124565062    
_RPAREF=  0.000000000000000    
_RPADISS=  0.000000000000000    
_IGNORE_UNDEF=  2.000000000000000    
_STRICTCHECK=  0.000000000000000    
_SEW_ONEEL=  0.000000000000000    
_CPPDONE=FALSE
_DKROLL_DONE=  0.000000000000000    
_FOCKDONE=TRUE
_GRADONE=FALSE
_HESSDONE=FALSE
_INTDONE=TRUE
_SCFDONE=TRUE
_MODUL_BLOCK=FALSE
_MODUL_CUDA=FALSE
_MODUL_SLATER=FALSE
_MODUL_MRCC=FALSE
_MODUL_NBO6=FALSE
_MODUL_NECI=TRUE
_MODUL_AIMS=TRUE
_MRCC_EXEC=
_FITC_AO_SAVED=FALSE
_FITC_MO_SAVED=FALSE
_SHARED_FS=TRUE
_LSTYP=SEWARD
_INTYP=INTS
_GEOMTYP=ZMAT
_GRADTYP=ALASKA
_DIRECT=FALSE
_DKHO= -1.000000000000000    
_SYNCM=  0.000000000000000    
_BASIS=6-31G
_ZORIENT=  1.000000000000000    
_NELEC=  14.00000000000000    
!SPIN=  0.000000000000000    
_QSDSTEP=  0.000000000000000    
_QSDIRC=  0.000000000000000    
_PROGRAM=HF-SCF
_CPUSTEP= 0.6000000000000000E-01
_SYSSTEP= 0.1000000000000001E-01
_WALLSTEP= 0.1100000000000000    
!DFSCF=  0.000000000000000    
!SCSGRD=  0.000000000000000    
_BASINP=  610.0000000000000    
_CARTESIAN=TRUE
_CPUTOT= 0.3100000000000000    
_CPUSORT= 0.1999999999999999E-01
_SYSSORT= 0.1000000000000001E-01
_WALLSORT= 0.4000000096857548E-01
_DFTEXFAC=  1.000000000000000    
_DMX=  0.000000000000000    
_DMY=  0.000000000000000    
_DMZ= -1.054444042506299    
_DMX_SCF=  0.000000000000000    
_DMY_SCF=  0.000000000000000    
_DMZ_SCF= -1.054444042506299    
_EHOMO=-0.4971165392771577    
_ELUMO= 0.6202197986389294E-02
_EIGS= -20.65690337529033    
_ENERGY= -112.4629519136378    
_ENERGY_METHOD=HF
_ENERGY_BASIS=6-31G
_GEOMETRY_METHOD=
_GEOMETRY_BASIS=
_ENUC=  16.00000000000000    
_GRADEXFAC=  9999.000000000000    
_GRADMETHOD=  1.000000000000000    
_NMRMETHOD=  0.000000000000000    
_NMRMAGNET=  0.000000000000000    
!GRID_FREEZE= -1.000000000000000    
_ITERATIONS=  10.00000000000000    
_LASTNELEC=  14.00000000000000    
_LASTSPIN=  0.000000000000000    
_LASTSYM=  1.000000000000000    
_MPP_PROG=  0.000000000000000    
_RS2PHASE=  0.000000000000000    
_NPROC_MPP=  1.000000000000000    
_NPROC_MPPX=  1.000000000000000    
_NPROC_SMP=  1.000000000000000    
_NUMSTEP=  0.000000000000000    
_ORBITAL=  2100.200000000000    
_PI=  3.141592653589793    
_SEIG_MIN= 0.5709353965561730E-01
_SEWPROP=TRUE
_STATUS=  1.000000000000000    
_SYSTOT= 0.1900000000000000    
_VERSION=  2015001.000000000    
_WALLTOT= 0.6000000000000000    
_DATE=08-Mar-22
_LASTORB=RHF
_MACHINE= 64 bit serial version
_OUTPUT=/home/jeremy/newCalcsForXray/CO/3morepoints/3/CO.xml
_PGROUP=C2v
_TIME=16:10:12
_LIBMOL=/shared/apps/quantum/molpro2015.1/lib/
_VIGRDC=  0.000000000000000    
!VIBCNT=  0.000000000000000    
!RGHFCNT=  0.000000000000000    
!SURFREC=  0.000000000000000    
!ROTREC=  0.000000000000000    
!POLYREC=  0.000000000000000    
!DIPREC=  0.000000000000000    
!DIP4DREC=  0.000000000000000    
!DIPROT=  0.000000000000000    
!DIP4DROT=  0.000000000000000    
!PTREC=  0.000000000000000    
!PT4DREC=  0.000000000000000    
!VSCFREC=  0.000000000000000    
!VCIREC=  0.000000000000000    
!PVCIREC=  0.000000000000000    
!VMP2REC=  0.000000000000000    
!VMCSCFREC=  0.000000000000000    
!VMRCIREC=  0.000000000000000    
!VIBSTATEREC=  0.000000000000000    
!VIBSTATECNT=  0.000000000000000    
!VIBINFO=  0.000000000000000    
!GAREC=  0.000000000000000    
!SCFORB=  21002.00000000000    
!NEWMOL= -1.000000000000000    
!NEWSYM= -1.000000000000000    
_SLFILES=slscratch
_NGSSTO=  9.000000000000000    
_SIN=SIN
_COS=COS
_TAN=TAN
_ACOS=ACOS
_ASIN=ASIN
_ATAN=ATAN
_COSH=COSH
_SINH=SINH
_TANH=TANH
_ABS=ABS
_MOD=MOD
_ERF=ERF
_REFC=REFC
_ERFC=ERFC
_HYPOT=HYPOT
_J0=J0
_J1=J1
_JN=JN
_GAMMA=GAMMA
_LGAMMA=LGAMMA
_Y0=Y0
_Y1=Y1
_YN=YN
_EXP=EXP
_LOG=LOG
_LOG10=LOG10
_SQRT=SQRT
_INT=INT
_NINT=NINT
_MAX=MAX
_MIN=MIN
_COSMO=  0.000000000000000    
_COSMOIT=  0.000000000000000    
_COSMOES=  0.000000000000000    
_COSMOEDS=  0.000000000000000    
_COSMOEC=  0.000000000000000    
_COSMOEDCORR=  0.000000000000000    
_FEPSI=  1.000000000000000    
_SL_IsMM=  0.000000000000000    
_SL_NSYM=  4.000000000000000    
_SL_System_BitSw=  0.000000000000000    
_SL_Unique_atoms=  0.000000000000000    
_SL_GRAD=  0.000000000000000    
_SL_MAXUPD_Hess=  5.000000000000000    
_SL_N_PRINT_COD=  5.000000000000000    
_SL_PRINT_CODES=  0.000000000000000    
_SL_BasType=  0.000000000000000    
_SL_Energy_Pred=  0.000000000000000    
_SL_New_Coords=  0.000000000000000    
_SL_Total_Nuclea=  0.000000000000000    
_SL_Highest_Mltp=  0.000000000000000    
_SL_Ref_Geom=  0.000000000000000    
_SL_Symmetry_ope=  1.000000000000000    
_SL_agrad=  0.000000000000000    
_SL_GrdMax=  0.000000000000000    
_SL_GrdNorm=  0.000000000000000    
_SL_GrdRMS=  0.000000000000000    
_SL_Hss_Q=  0.000000000000000    
_SL_Hss_X=  0.000000000000000    
_SL_BMxOld=  0.000000000000000    
_SL_KtB=  0.000000000000000    
_SL_TROld=  0.000000000000000    
_SL_No_of_Intern=  0.000000000000000    
_SL_Hess=  0.000000000000000    
_SL_K=  0.000000000000000    
!LATTICE= -1.000000000000000    
!NEWLATTICE=  0.000000000000000    
!LATGRAD_VAR=FALSE
!SEW_LATTICE=  1.000000000000000    
!LOCAL=  0.000000000000000    
!SAVEDOM= -1.000000000000000    
!RESTDOM= -1.000000000000000    
!SAVEDOM_HF= -1.000000000000000    
!RESTDOM_HF= -1.000000000000000    
!HESSREC=  0.000000000000000    
!FREQREC=  0.000000000000000    
!NMODREC=  0.000000000000000    
!GTASKS=  0.000000000000000    
!HTASKS=  0.000000000000000    
!SAVEDOM_EOM= -1.000000000000000    
!RESTDOM_EOM= -1.000000000000000    
!GRADSTATE= -1.000000000000000    
!THRCHG= 0.1000000000000000    
!DEBUG= -1.000000000000000    
!CFIT_CPHF=  0.000000000000000    
!RDOMAUX_CPHF=  3.000000000000000    
!THRAO_CPHF= 0.1000000000000000E-09
!THRMO_CPHF= 0.1000000000000000E-08
!THROV_CPHF= 0.1000000000000000E-11
!THRSW_CPHF= 0.1000000000000000E-09
!THRPROD_CPHF= 0.1000000000000000E-08
!THRAOPR_CPHF= 0.1000000000000000E-11
!CFIT_SCFGRD=  0.000000000000000    
!RDOMAUX_SCFGRD=  5.000000000000000    
!THRAO_SCFGRD= 0.1000000000000000E-09
!THRMO_SCFGRD= 0.1000000000000000E-08
!THROV_SCFGRD= 0.1000000000000000E-11
!THRSW_SCFGRD= 0.1000000000000000E-09
!THRPROD_SCFGRD= 0.1000000000000000E-08
!THRAOPR_SCFGRD= 0.1000000000000000E-11
!LOCFIT_SCF=  0.000000000000000    
!LOCFIT_MP2= -1.000000000000000    
_RIDOM=  0.000000000000000    
!CC2_METHOD=  0.000000000000000    
_BASIS2006=FALSE
_SVDDEL= -1.000000000000000    
_SVDDELA= -1.000000000000000    
_SVDDELP= -1.000000000000000    
_SVDDELF= -1.000000000000000    
_SVDDELS= -1.000000000000000    
_SVDDEL_ABS= -1.000000000000000    
_SVDDELA_ABS= -1.000000000000000    
_SVDDELP_ABS= -1.000000000000000    
_SVDDELF_ABS= -1.000000000000000    
_SVDDELS_ABS= -1.000000000000000    
_MAXBASIS=  0.000000000000000    
!OPT_CONICAL=  0.000000000000000    
!CLEARSP_JGRID=  0.000000000000000    
_GRDHYBR=  0.000000000000000    
_STATEGRAD=  1.000000000000000    
_4EXT_NDISKS=  1.000000000000000    
!ZMP=  0.000000000000000    
_MAXIT_ZMP=  500.0000000000000    
_MAXDIS_ZMP=  100.0000000000000    
_ACCU_ZMP=  14.00000000000000    
_SHIFTA_ZMP= -100.0000000000000    
!EMBEDFLAG=  1.000000000000000    
!EMBED=FALSE
!EMBED_F12=FALSE
!EMBEDNUC=  0.000000000000000    
_EMBEDENERGY=  0.000000000000000    
_KSPACETIME=  0.000000000000000    
_RSPACETIME=  0.000000000000000    
!EMBED_DFC=FALSE
!NUM_VOIDS=  0.000000000000000    
_IBODY=  0.000000000000000    
_EMBE_TOTAL=  0.000000000000000    
_EMBE_HF=  0.000000000000000    
_EMBE_CORR=  0.000000000000000    
!EMBED_PROJ=FALSE
!EMBED_TRUNC=  0.000000000000000    
!EMB_PROJ_ZMU=  1000000.000000000    
!CORRECTION=  0.000000000000000    
!CORRECTION_HF=  0.000000000000000    
!EMBED_ENERGY=  0.000000000000000    
!EMBED_NAXC=FALSE
!EMBED_AORB=  0.000000000000000    
!EMBED_NACORR=  0.000000000000000    
!EMBED_MP2=FALSE
!EMBED_TRUNC_PERTURBATION=FALSE
!EMBED_FROZEN=  0.000000000000000    
_CHANGE_BASIS=FALSE
_RESTORE_BASIS=FALSE
_FIX_EMBED_GUESS=FALSE
!EDFT=  0.000000000000000    
_IFASTLATGRAD=  0.000000000000000    
_SINDEX=  0.000000000000000    
_AVDOM_OSV=  0.000000000000000    
_AVDOM_PNO=  0.000000000000000    
_AVDOM_PAO=  0.000000000000000    
_AVDOM_LMO=  0.000000000000000    
_CC2OSV_FLAG=  0.000000000000000    
_TMADC2_FLAG=FALSE
_PROPADC2_FLAG=FALSE
_LEN_VirQ=  0.000000000000000    
_GRDCC2LR_FLAG=FALSE
_GRDADC2_FLAG=FALSE
R1=  3.000000000000000    
GX1=  0.000000000000000    
GY1=  0.000000000000000    
GZ1= -1.713584954159884    
GX2=  0.000000000000000    
GY2=  0.000000000000000    
GZ2=  1.286415045840116    
[Atoms] Angs
C     1    6         0.0000000000        0.0000000000       -0.9067901067
O     2    8         0.0000000000        0.0000000000        0.6807415260
[GTO]
   1 0
 s    6  1.00
  0.3047524900D+04  0.1834737091D-02
  0.4573695200D+03  0.1403732293D-01
  0.1039486800D+03  0.6884262165D-01
  0.2921015500D+02  0.2321844388D+00
  0.9286663000D+01  0.4679413476D+00
  0.3163927000D+01  0.3623119882D+00
 s    3  1.00
  0.7868272300D+01 -0.1193324245D+00
  0.1881288500D+01 -0.1608541561D+00
  0.5442492600D+00  0.1143456443D+01
 s    1  1.00
  0.1687144800D+00  0.1000000000D+01
 p    3  1.00
  0.7868272300D+01  0.6899906693D-01
  0.1881288500D+01  0.3164239597D+00
  0.5442492600D+00  0.7443082892D+00
 p    1  1.00
  0.1687144800D+00  0.1000000000D+01
  
   2 0
 s    6  1.00
  0.5484671700D+04  0.1831074396D-02
  0.8252349500D+03  0.1395017197D-01
  0.1880469600D+03  0.6844507786D-01
  0.5296450000D+02  0.2327143395D+00
  0.1689757000D+02  0.4701928990D+00
  0.5799635300D+01  0.3585208493D+00
 s    3  1.00
  0.1553961600D+02 -0.1107775519D+00
  0.3599933600D+01 -0.1480262626D+00
  0.1013761800D+01  0.1130767020D+01
 s    1  1.00
  0.2700058200D+00  0.1000000000D+01
 p    3  1.00
  0.1553961600D+02  0.7087426737D-01
  0.3599933600D+01  0.3397528370D+00
  0.1013761800D+01  0.7271585736D+00
 p    1  1.00
  0.2700058200D+00  0.1000000000D+01
 
 
[MO]
 Sym=      1.1
 Ene=     -20.6569
 Spin= Alpha
 Occup=    2.000000
1 -0.000041411242744
2 -0.000327699400591
3 0.002619736103868
4 0.0
5 0.0
6 0.000299904847157
7 0.0
8 0.0
9 0.001953287891992
10 0.99599071561173
11 0.020734544695504
12 -0.006994659352358
13 0.0
14 0.0
15 -0.001626400587820
16 0.0
17 0.0
18 0.002311943654956
 Sym=      2.1
 Ene=     -11.5210
 Spin= Alpha
 Occup=    2.000000
1 0.99676550326158
2 0.018818145365897
3 -0.005620503731962
4 0.0
5 0.0
6 0.001921998549658
7 0.0
8 0.0
9 -0.001500912975595
10 -0.000071175744485
11 -0.000076568976634
12 0.001374861116584
13 0.0
14 0.0
15 -0.000227998804466
16 0.0
17 0.0
18 -0.000079903875022
 Sym=      3.1
 Ene=      -1.2899
 Spin= Alpha
 Occup=    2.000000
1 -0.066858027215717
2 0.15096405053290
3 0.057454878508686
4 0.0
5 0.0
6 0.10760728874463
7 0.0
8 0.0
9 -0.008896019620705
10 -0.21304568074834
11 0.47976659371511
12 0.51066382643874
13 0.0
14 0.0
15 -0.068441108445169
16 0.0
17 0.0
18 -0.068880052389126
 Sym=      4.1
 Ene=      -0.8010
 Spin= Alpha
 Occup=    2.000000
1 -0.20415397159038
2 0.47907451991273
3 0.46471574605683
4 0.0
5 0.0
6 -0.007269221892936
7 0.0
8 0.0
9 -0.031618787133219
10 0.085518340414347
11 -0.21065505237363
12 -0.26099977950644
13 0.0
14 0.0
15 -0.20691686194976
16 0.0
17 0.0
18 -0.11828856339716
 Sym=      5.1
 Ene=      -0.5163
 Spin= Alpha
 Occup=    2.000000
1 -0.061401961682941
2 0.11806651836413
3 0.29447430377591
4 0.0
5 0.0
6 -0.46967319288155
7 0.0
8 0.0
9 -0.20707448949699
10 -0.033991380822676
11 0.092931238654139
12 0.11990301934356
13 0.0
14 0.0
15 0.41679198090402
16 0.0
17 0.0
18 0.31092603182352
 Sym=      1.2
 Ene=      -0.4971
 Spin= Alpha
 Occup=    2.000000
1 0.0
2 0.0
3 0.0
4 0.20458246956378
5 0.0
6 0.0
7 0.17082864947802
8 0.0
9 0.0
10 0.0
11 0.0
12 0.0
13 0.57934710298906
14 0.0
15 0.0
16 0.44051785531276
17 0.0
18 0.0
 Sym=      1.3
 Ene=      -0.4971
 Spin= Alpha
 Occup=    2.000000
1 0.0
2 0.0
3 0.0
4 0.0
5 0.20458246956378
6 0.0
7 0.0
8 0.17082864947802
9 0.0
10 0.0
11 0.0
12 0.0
13 0.0
14 0.57934710298906
15 0.0
16 0.0
17 0.44051785531276
18 0.0
 Sym=      2.2
 Ene=       0.0062
 Spin= Alpha
 Occup=    0.000000
1 0.0
2 0.0
3 0.0
4 0.52293995987697
5 0.0
6 0.0
7 0.57315392259097
8 0.0
9 0.0
10 0.0
11 0.0
12 0.0
13 -0.29456465151477
14 0.0
15 0.0
16 -0.29476363230255
17 0.0
18 0.0
 Sym=      2.3
 Ene=       0.0062
 Spin= Alpha
 Occup=    0.000000
1 0.0
2 0.0
3 0.0
4 0.0
5 0.52293995987697
6 0.0
7 0.0
8 0.57315392259097
9 0.0
10 0.0
11 0.0
12 0.0
13 0.0
14 -0.29456465151477
15 0.0
16 0.0
17 -0.29476363230255
18 0.0
 Sym=      6.1
 Ene=       0.2315
 Spin= Alpha
 Occup=    0.000000
1 -0.081878665584910
2 0.16246588838318
3 0.62871251409626
4 0.0
5 0.0
6 0.43721973566369
7 0.0
8 0.0
9 0.90624718235697
10 0.070804962133670
11 -0.13257657225261
12 -0.69641635500159
13 0.0
14 0.0
15 0.43867778420355
16 0.0
17 0.0
18 0.72631653493357
 Sym=      7.1
 Ene=       0.6786
 Spin= Alpha
 Occup=    0.000000
1 -0.020230499328770
2 0.10311911383331
3 0.20153735328280
4 0.0
5 0.0
6 -1.01723355318458
7 0.0
8 0.0
9 1.43782774869079
10 0.008704620813994
11 0.055911002657631
12 -0.67496940345875
13 0.0
14 0.0
15 -0.21022897323223
16 0.0
17 0.0
18 0.29501470457114
 Sym=      3.2
 Ene=       0.7106
 Spin= Alpha
 Occup=    0.000000
1 0.0
2 0.0
3 0.0
4 -1.08330144470536
5 0.0
6 0.0
7 1.11695152434871
8 0.0
9 0.0
10 0.0
11 0.0
12 0.0
13 -0.074920531218335
14 0.0
15 0.0
16 -0.11023095124143
17 0.0
18 0.0
 Sym=      3.3
 Ene=       0.7106
 Spin= Alpha
 Occup=    0.000000
1 0.0
2 0.0
3 0.0
4 0.0
5 -1.08330144470536
6 0.0
7 0.0
8 1.11695152434871
9 0.0
10 0.0
11 0.0
12 0.0
13 0.0
14 -0.074920531218335
15 0.0
16 0.0
17 -0.11023095124143
18 0.0
 Sym=      8.1
 Ene=       0.7368
 Spin= Alpha
 Occup=    0.000000
1 -0.047061051277216
2 1.68649846646910
3 -2.02301468782436
4 0.0
5 0.0
6 0.059892275423947
7 0.0
8 0.0
9 -0.50963904778138
10 -0.033650149943306
11 0.10961655418193
12 0.53082833106462
13 0.0
14 0.0
15 0.11392439161606
16 0.0
17 0.0
18 -0.39792304721629
 Sym=      4.2
 Ene=       1.2131
 Spin= Alpha
 Occup=    0.000000
1 0.0
2 0.0
3 0.0
4 0.063638667093105
5 0.0
6 0.0
7 -0.32195558610795
8 0.0
9 0.0
10 0.0
11 0.0
12 0.0
13 -0.96261836373109
14 0.0
15 0.0
16 1.12698377151366
17 0.0
18 0.0
 Sym=      4.3
 Ene=       1.2131
 Spin= Alpha
 Occup=    0.000000
1 0.0
2 0.0
3 0.0
4 0.0
5 0.063638667093105
6 0.0
7 0.0
8 -0.32195558610796
9 0.0
10 0.0
11 0.0
12 0.0
13 0.0
14 -0.96261836373109
15 0.0
16 0.0
17 1.12698377151366
18 0.0
 Sym=      9.1
 Ene=       1.2588
 Spin= Alpha
 Occup=    0.000000
1 0.003431678185722
2 0.34641893422870
3 -0.15898411173332
4 0.0
5 0.0
6 0.20703658872071
7 0.0
8 0.0
9 -0.17843124694504
10 0.055470056576349
11 -0.70926024503026
12 0.75797415131351
13 0.0
14 0.0
15 -0.82303949864669
16 0.0
17 0.0
18 0.94406975684555
 Sym=     10.1
 Ene=       1.6917
 Spin= Alpha
 Occup=    0.000000
1 0.038503534381891
2 0.12796042550467
3 -1.19554968553207
4 0.0
5 0.0
6 -0.26732106201934
7 0.0
8 0.0
9 -0.80289340058988
10 0.060897450949249
11 -1.51762290494406
12 2.31391826439138
13 0.0
14 0.0
15 0.52753853492833
16 0.0
17 0.0
18 -1.27311532731675
