[Molden Format]
[Atoms] Angs
LI    1    3         0.0000000000        0.0000000000       -3.1790000000
F     2    9         0.0000000000        0.0000000000        3.1790000000
[GTO]
   1 0
 s   11  1.00
  0.5988000000D+04  0.1329999901D-03
  0.8989000000D+03  0.1024999924D-02
  0.2059000000D+03  0.5271999607D-02
  0.5924000000D+02  0.2092899844D-01
  0.1987000000D+02  0.6633999506D-01
  0.7406000000D+01  0.1657749877D+00
  0.2930000000D+01  0.3150379765D+00
  0.1189000000D+01  0.3935229707D+00
  0.4798000000D+00  0.1908699858D+00
  0.7509000000D-01  0.5413999597D-02
  0.2832000000D-01 -0.1327999901D-02
 s   11  1.00
  0.5988000000D+04 -0.2100000605D-04
  0.8989000000D+03 -0.1610000464D-03
  0.2059000000D+03 -0.8200002362D-03
  0.5924000000D+02 -0.3326000958D-02
  0.1987000000D+02 -0.1051900303D-01
  0.7406000000D+01 -0.2809700809D-01
  0.2930000000D+01 -0.5593601611D-01
  0.1189000000D+01 -0.9923702859D-01
  0.4798000000D+00 -0.1121890323D+00
  0.7509000000D-01  0.5678891636D+00
  0.2832000000D-01  0.5303821528D+00
 s   11  1.00
  0.5988000000D+04  0.0000000000D+00
  0.8989000000D+03  0.0000000000D+00
  0.2059000000D+03  0.0000000000D+00
  0.5924000000D+02  0.0000000000D+00
  0.1987000000D+02  0.0000000000D+00
  0.7406000000D+01  0.0000000000D+00
  0.2930000000D+01  0.0000000000D+00
  0.1189000000D+01  0.0000000000D+00
  0.4798000000D+00  0.0000000000D+00
  0.7509000000D-01  0.1000000000D+01
  0.2832000000D-01  0.0000000000D+00
 s   11  1.00
  0.5988000000D+04  0.0000000000D+00
  0.8989000000D+03  0.0000000000D+00
  0.2059000000D+03  0.0000000000D+00
  0.5924000000D+02  0.0000000000D+00
  0.1987000000D+02  0.0000000000D+00
  0.7406000000D+01  0.0000000000D+00
  0.2930000000D+01  0.0000000000D+00
  0.1189000000D+01  0.0000000000D+00
  0.4798000000D+00  0.0000000000D+00
  0.7509000000D-01  0.0000000000D+00
  0.2832000000D-01  0.1000000000D+01
 p    5  1.00
  0.3266000000D+01  0.8630004765D-02
  0.6511000000D+00  0.4753802625D-01
  0.1696000000D+00  0.2097721158D+00
  0.5578000000D-01  0.5285222918D+00
  0.2050000000D-01  0.3827442113D+00
 p    5  1.00
  0.3266000000D+01  0.0000000000D+00
  0.6511000000D+00  0.0000000000D+00
  0.1696000000D+00  0.0000000000D+00
  0.5578000000D-01  0.1000000000D+01
  0.2050000000D-01  0.0000000000D+00
 p    5  1.00
  0.3266000000D+01  0.0000000000D+00
  0.6511000000D+00  0.0000000000D+00
  0.1696000000D+00  0.0000000000D+00
  0.5578000000D-01  0.0000000000D+00
  0.2050000000D-01  0.1000000000D+01
 d    1  1.00
  0.1900000000D+00  0.1000000000D+01
 d    1  1.00
  0.7250000000D-01  0.1000000000D+01
 f    1  1.00
  0.1270000000D+00  0.1000000000D+01
  
   2 0
 s   10  1.00
  0.1950000000D+05  0.5070001688D-03
  0.2923000000D+04  0.3923001306D-02
  0.6645000000D+03  0.2020000673D-01
  0.1875000000D+03  0.7901002631D-01
  0.6062000000D+02  0.2304390767D+00
  0.2142000000D+02  0.4328721441D+00
  0.7950000000D+01  0.3499641165D+00
  0.2257000000D+01  0.4323301440D-01
  0.8815000000D+00 -0.7892002628D-02
  0.3041000000D+00  0.2384000794D-02
 s   10  1.00
  0.1950000000D+05 -0.1169999533D-03
  0.2923000000D+04 -0.9119996360D-03
  0.6645000000D+03 -0.4716998117D-02
  0.1875000000D+03 -0.1908599238D-01
  0.6062000000D+02 -0.5965497619D-01
  0.2142000000D+02 -0.1400099441D+00
  0.7950000000D+01 -0.1767819294D+00
  0.2257000000D+01  0.1716249315D+00
  0.8815000000D+00  0.6050427585D+00
  0.3041000000D+00  0.3695118525D+00
 s   10  1.00
  0.1950000000D+05  0.0000000000D+00
  0.2923000000D+04  0.0000000000D+00
  0.6645000000D+03  0.0000000000D+00
  0.1875000000D+03  0.0000000000D+00
  0.6062000000D+02  0.0000000000D+00
  0.2142000000D+02  0.0000000000D+00
  0.7950000000D+01  0.0000000000D+00
  0.2257000000D+01  0.1000000000D+01
  0.8815000000D+00  0.0000000000D+00
  0.3041000000D+00  0.0000000000D+00
 s   10  1.00
  0.1950000000D+05  0.0000000000D+00
  0.2923000000D+04  0.0000000000D+00
  0.6645000000D+03  0.0000000000D+00
  0.1875000000D+03  0.0000000000D+00
  0.6062000000D+02  0.0000000000D+00
  0.2142000000D+02  0.0000000000D+00
  0.7950000000D+01  0.0000000000D+00
  0.2257000000D+01  0.0000000000D+00
  0.8815000000D+00  0.0000000000D+00
  0.3041000000D+00  0.1000000000D+01
 s    1  1.00
  0.9158000000D-01  0.1000000000D+01
 p    5  1.00
  0.4388000000D+02  0.1666500251D-01
  0.9926000000D+01  0.1044720157D+00
  0.2930000000D+01  0.3172600478D+00
  0.9132000000D+00  0.4873430734D+00
  0.2672000000D+00  0.3346040504D+00
 p    5  1.00
  0.4388000000D+02  0.0000000000D+00
  0.9926000000D+01  0.0000000000D+00
  0.2930000000D+01  0.0000000000D+00
  0.9132000000D+00  0.1000000000D+01
  0.2672000000D+00  0.0000000000D+00
 p    5  1.00
  0.4388000000D+02  0.0000000000D+00
  0.9926000000D+01  0.0000000000D+00
  0.2930000000D+01  0.0000000000D+00
  0.9132000000D+00  0.0000000000D+00
  0.2672000000D+00  0.1000000000D+01
 p    1  1.00
  0.7361000000D-01  0.1000000000D+01
 d    1  1.00
  0.3107000000D+01  0.1000000000D+01
 d    1  1.00
  0.8550000000D+00  0.1000000000D+01
 d    1  1.00
  0.2920000000D+00  0.1000000000D+01
 f    1  1.00
  0.1917000000D+01  0.1000000000D+01
 f    1  1.00
  0.7240000000D+00  0.1000000000D+01


[MO]
 Sym=      1.1
 Ene=     -26.2665
 Spin= Alpha
 Occup=    2.000000
1 -0.000032082752289
2 -0.000147690923404
3 0.000034639026750
4 0.000129820556522
5 0.0
6 0.0
7 0.000074191997157
8 0.0
9 0.0
10 -0.000108890583118
11 0.0
12 0.0
13 0.000070272172368
14 0.000008526544118
15 0.000008526544118
16 -0.000017053088236
17 0.0
18 0.0
19 0.0
20 -0.000013389218873
21 -0.000013389218873
22 0.000026778437745
23 0.0
24 0.0
25 0.0
26 0.0
27 0.0
28 0.000004889435735
29 0.0
30 0.0
31 -0.000003279933203
32 0.0
33 0.0
34 -0.000003279933203
35 0.0
36 0.99963159902868
37 -0.001070388327581
38 0.000323766268137
39 0.001493416632394
40 -0.000811986618935
41 0.0
42 0.0
43 -0.000022252576896
44 0.0
45 0.0
46 0.000024521028506
47 0.0
48 0.0
49 -0.000012092935519
50 0.0
51 0.0
52 0.000032629529949
53 0.000000261077405
54 0.000000261077405
55 -0.000000522154810
56 0.0
57 0.0
58 0.0
59 -0.000000760948389
60 -0.000000760948389
61 0.000001521896779
62 0.0
63 0.0
64 0.0
65 0.000001376080891
66 0.000001376080891
67 -0.000002752161783
68 0.0
69 0.0
70 0.0
71 0.0
72 0.0
73 -0.000000046716814
74 0.0
75 0.0
76 0.000000031338592
77 0.0
78 0.0
79 0.000000031338592
80 0.0
81 0.0
82 0.0
83 0.000000086717250
84 0.0
85 0.0
86 -0.000000058171700
87 0.0
88 0.0
89 -0.000000058171700
90 0.0
 Sym=      2.1
 Ene=      -2.5355
 Spin= Alpha
 Occup=    2.000000
1 1.00068392643354
2 0.002047384911717
3 -0.001544985482528
4 -0.001224300095029
5 0.0
6 0.0
7 -0.001084507414458
8 0.0
9 0.0
10 0.000763511300999
11 0.0
12 0.0
13 0.000289496015251
14 0.000001164963547
15 0.000001164963547
16 -0.000002329927094
17 0.0
18 0.0
19 0.0
20 0.000006187197036
21 0.000006187197036
22 -0.000012374394072
23 0.0
24 0.0
25 0.0
26 0.0
27 0.0
28 -0.000003706526785
29 0.0
30 0.0
31 0.000002486413756
32 0.0
33 0.0
34 0.000002486413756
35 0.0
36 0.000018710696330
37 0.000055641150005
38 -0.000013373299564
39 -0.000109793909241
40 0.000113991910811
41 0.0
42 0.0
43 0.000006232739293
44 0.0
45 0.0
46 -0.000018168671342
47 0.0
48 0.0
49 0.000044812470741
50 0.0
51 0.0
52 -0.000105050199480
53 -0.000000470227103
54 -0.000000470227103
55 0.000000940454207
56 0.0
57 0.0
58 0.0
59 0.000002535909790
60 0.000002535909790
61 -0.000005071819580
62 0.0
63 0.0
64 0.0
65 -0.000005902806250
66 -0.000005902806250
67 0.000011805612499
68 0.0
69 0.0
70 0.0
71 0.0
72 0.0
73 0.000000148335288
74 0.0
75 0.0
76 -0.000000099506336
77 0.0
78 0.0
79 -0.000000099506336
80 0.0
81 0.0
82 0.0
83 -0.000000423446423
84 0.0
85 0.0
86 0.000000284056496
87 0.0
88 0.0
89 0.000000284056496
90 0.0
 Sym=      3.1
 Ene=      -1.4655
 Spin= Alpha
 Occup=    2.000000
1 -0.000033227230146
2 -0.000179239839289
3 0.000013975843563
4 0.000176213007276
5 0.0
6 0.0
7 0.000296311399061
8 0.0
9 0.0
10 -0.000397912103868
11 0.0
12 0.0
13 0.000166127359938
14 0.000003160481009
15 0.000003160481009
16 -0.000006320962019
17 0.0
18 0.0
19 0.0
20 -0.000003744966077
21 -0.000003744966077
22 0.000007489932155
23 0.0
24 0.0
25 0.0
26 0.0
27 0.0
28 -0.000007658294713
29 0.0
30 0.0
31 0.000005137340271
32 0.0
33 0.0
34 0.000005137340271
35 0.0
36 -0.001040065969332
37 0.99027026632679
38 -0.000669616630130
39 0.003229709354550
40 0.012608434774607
41 0.0
42 0.0
43 0.000675480597068
44 0.0
45 0.0
46 -0.000026748817769
47 0.0
48 0.0
49 -0.000353745832516
50 0.0
51 0.0
52 0.000043727793269
53 -0.000000531849149
54 -0.000000531849149
55 0.000001063698299
56 0.0
57 0.0
58 0.0
59 -0.000004030102191
60 -0.000004030102191
61 0.000008060204382
62 0.0
63 0.0
64 0.0
65 -0.000024437013301
66 -0.000024437013301
67 0.000048874026601
68 0.0
69 0.0
70 0.0
71 0.0
72 0.0
73 0.000000758479694
74 0.0
75 0.0
76 -0.000000508803647
77 0.0
78 0.0
79 -0.000000508803647
80 0.0
81 0.0
82 0.0
83 -0.000004263733722
84 0.0
85 0.0
86 0.000002860199532
87 0.0
88 0.0
89 0.000002860199532
90 0.0
 Sym=      4.1
 Ene=      -0.5055
 Spin= Alpha
 Occup=    1.750000
1 -0.000055015030465
2 0.000657997688693
3 -0.000248472444933
4 0.000857736661729
5 0.0
6 0.0
7 -0.000697689785726
8 0.0
9 0.0
10 0.000614597950815
11 0.0
12 0.0
13 0.000533919526226
14 0.000112948640410
15 0.000112948640410
16 -0.000225897280819
17 0.0
18 0.0
19 0.0
20 -0.000242266523859
21 -0.000242266523859
22 0.000484533047718
23 0.0
24 0.0
25 0.0
26 0.0
27 0.0
28 0.000167435620203
29 0.0
30 0.0
31 -0.000112319228588
32 0.0
33 0.0
34 -0.000112319228588
35 0.0
36 0.000066707657265
37 0.000474613720516
38 0.000040515512812
39 0.000307612632809
40 -0.002047936064217
41 0.0
42 0.0
43 0.97130925075715
44 0.0
45 0.0
46 0.002653821764073
47 0.0
48 0.0
49 0.017330820801391
50 0.0
51 0.0
52 0.039328647700805
53 0.000029409271962
54 0.000029409271962
55 -0.000058818543924
56 0.0
57 0.0
58 0.0
59 0.000024926181530
60 0.000024926181530
61 -0.000049852363061
62 0.0
63 0.0
64 0.0
65 0.000440993429181
66 0.000440993429181
67 -0.000881986858362
68 0.0
69 0.0
70 0.0
71 0.0
72 0.0
73 -0.000006178410919
74 0.0
75 0.0
76 0.000004144604042
77 0.0
78 0.0
79 0.000004144604042
80 0.0
81 0.0
82 0.0
83 0.000046731225689
84 0.0
85 0.0
86 -0.000031348259194
87 0.0
88 0.0
89 -0.000031348259194
90 0.0
 Sym=      5.1
 Ene=      -0.5054
 Spin= Alpha
 Occup=    1.750000
1 0.0
2 0.0
3 0.0
4 0.0
5 0.0
6 -0.000093780708004
7 0.0
8 0.0
9 0.000190632700823
10 0.0
11 0.0
12 -0.000204172665717
13 0.0
14 0.0
15 0.0
16 0.0
17 0.0
18 0.0
19 0.000059370584132
20 0.0
21 0.0
22 0.0
23 0.0
24 0.0
25 -0.000112993016808
26 0.0
27 0.000018680564391
28 0.0
29 0.0
30 0.000008354202367
31 0.0
32 0.0
33 -0.000033416809470
34 0.0
35 0.0
36 0.0
37 0.0
38 0.0
39 0.0
40 0.0
41 0.0
42 0.97152001046117
43 0.0
44 0.0
45 0.002641003646918
46 0.0
47 0.0
48 0.017278471971037
49 0.0
50 0.0
51 0.038831465875777
52 0.0
53 0.0
54 0.0
55 0.0
56 0.0
57 0.0
58 -0.000048726068363
59 0.0
60 0.0
61 0.0
62 0.0
63 0.0
64 -0.000051847615220
65 0.0
66 0.0
67 0.0
68 0.0
69 0.0
70 -0.000716697390863
71 0.0
72 0.000002841579489
73 0.0
74 0.0
75 0.000001270792980
76 0.0
77 0.0
78 -0.000005083171921
79 0.0
80 0.0
81 0.0
82 -0.000022415231710
83 0.0
84 0.0
85 -0.000010024396367
86 0.0
87 0.0
88 0.000040097585468
89 0.0
90 0.0
 Sym=      6.1
 Ene=      -0.5054
 Spin= Alpha
 Occup=    1.750000
1 0.0
2 0.0
3 0.0
4 0.0
5 -0.000093780708005
6 0.0
7 0.0
8 0.000190632700823
9 0.0
10 0.0
11 -0.000204172665716
12 0.0
13 0.0
14 0.0
15 0.0
16 0.0
17 0.0
18 0.000059370584132
19 0.0
20 0.0
21 0.0
22 0.0
23 0.0
24 -0.000112993016808
25 0.0
26 0.000018680564391
27 0.0
28 0.0
29 0.000008354202367
30 0.0
31 0.0
32 -0.000033416809470
33 0.0
34 0.0
35 0.0
36 0.0
37 0.0
38 0.0
39 0.0
40 0.0
41 0.97152001046116
42 0.0
43 0.0
44 0.002641003646920
45 0.0
46 0.0
47 0.017278471971038
48 0.0
49 0.0
50 0.038831465875778
51 0.0
52 0.0
53 0.0
54 0.0
55 0.0
56 0.0
57 -0.000048726068363
58 0.0
59 0.0
60 0.0
61 0.0
62 0.0
63 -0.000051847615220
64 0.0
65 0.0
66 0.0
67 0.0
68 0.0
69 -0.000716697390863
70 0.0
71 0.000002841579489
72 0.0
73 0.0
74 0.000001270792980
75 0.0
76 0.0
77 -0.000005083171921
78 0.0
79 0.0
80 0.0
81 -0.000022415231710
82 0.0
83 0.0
84 -0.000010024396367
85 0.0
86 0.0
87 0.000040097585468
88 0.0
89 0.0
90 0.0
 Sym=      7.1
 Ene=      -0.0877
 Spin= Alpha
 Occup=    0.750000
1 0.000566769948420
2 1.00037178367403
3 -0.000078263893921
4 -0.000187015192400
5 0.0
6 0.0
7 -0.000150800876442
8 0.0
9 0.0
10 -0.000042278664862
11 0.0
12 0.0
13 -0.000298848740230
14 -0.000011333494495
15 -0.000011333494495
16 0.000022666988991
17 0.0
18 0.0
19 0.0
20 0.000062112636514
21 0.000062112636514
22 -0.000124225273028
23 0.0
24 0.0
25 0.0
26 0.0
27 0.0
28 -0.000021227867509
29 0.0
30 0.0
31 0.000014240086430
32 0.0
33 0.0
34 0.000014240086430
35 0.0
36 -0.000038936766361
37 -0.002202378667029
38 -0.000034091047782
39 -0.000846264967771
40 -0.000911891911097
41 0.0
42 0.0
43 0.003021134298234
44 0.0
45 0.0
46 0.000048117654214
47 0.0
48 0.0
49 0.000428569932621
50 0.0
51 0.0
52 0.001894838921551
53 -0.000001493142395
54 -0.000001493142395
55 0.000002986284789
56 0.0
57 0.0
58 0.0
59 -0.000039814691487
60 -0.000039814691487
61 0.000079629382974
62 0.0
63 0.0
64 0.0
65 0.000038604716971
66 0.000038604716971
67 -0.000077209433942
68 0.0
69 0.0
70 0.0
71 0.0
72 0.0
73 -0.000001561492518
74 0.0
75 0.0
76 0.000001047481025
77 0.0
78 0.0
79 0.000001047481025
80 0.0
81 0.0
82 0.0
83 -0.000002033463822
84 0.0
85 0.0
86 0.000001364089001
87 0.0
88 0.0
89 0.000001364089001
90 0.0
 Sym=      8.1
 Ene=       0.0163
 Spin= Alpha
 Occup=   -0.000000
1 0.0
2 0.0
3 0.0
4 0.0
5 0.52417376884816
6 0.0
7 0.0
8 -0.20713731884108
9 0.0
10 0.0
11 0.70011166606042
12 0.0
13 0.0
14 0.0
15 0.0
16 0.0
17 0.0
18 0.004239338509845
19 0.0
20 0.0
21 0.0
22 0.0
23 0.0
24 -0.020425601797888
25 0.0
26 0.000701735793988
27 0.0
28 0.0
29 0.000313825787521
30 0.0
31 0.0
32 -0.001255303150082
33 0.0
34 0.0
35 0.0
36 0.0
37 0.0
38 0.0
39 0.0
40 0.0
41 -0.005084941890242
42 0.0
43 0.0
44 -0.000207413235950
45 0.0
46 0.0
47 0.000181083410750
48 0.0
49 0.0
50 -0.005342998779818
51 0.0
52 0.0
53 0.0
54 0.0
55 0.0
56 0.0
57 0.000001706479657
58 0.0
59 0.0
60 0.0
61 0.0
62 0.0
63 -0.000279787702983
64 0.0
65 0.0
66 0.0
67 0.0
68 0.0
69 0.000403130681610
70 0.0
71 -0.000005100156188
72 0.0
73 0.0
74 -0.000002280859186
75 0.0
76 0.0
77 0.000009123436746
78 0.0
79 0.0
80 0.0
81 0.000006698381417
82 0.0
83 0.0
84 0.000002995607237
85 0.0
86 0.0
87 -0.000011982428950
88 0.0
89 0.0
90 0.0
 Sym=      9.1
 Ene=       0.0163
 Spin= Alpha
 Occup=   -0.000000
1 0.0
2 0.0
3 0.0
4 0.0
5 0.0
6 0.52417376884816
7 0.0
8 0.0
9 -0.20713731884108
10 0.0
11 0.0
12 0.70011166606042
13 0.0
14 0.0
15 0.0
16 0.0
17 0.0
18 0.0
19 0.004239338509845
20 0.0
21 0.0
22 0.0
23 0.0
24 0.0
25 -0.020425601797892
26 0.0
27 0.000701735793987
28 0.0
29 0.0
30 0.000313825787520
31 0.0
32 0.0
33 -0.001255303150080
34 0.0
35 0.0
36 0.0
37 0.0
38 0.0
39 0.0
40 0.0
41 0.0
42 -0.005084941890241
43 0.0
44 0.0
45 -0.000207413235950
46 0.0
47 0.0
48 0.000181083410750
49 0.0
50 0.0
51 -0.005342998779817
52 0.0
53 0.0
54 0.0
55 0.0
56 0.0
57 0.0
58 0.000001706479658
59 0.0
60 0.0
61 0.0
62 0.0
63 0.0
64 -0.000279787702983
65 0.0
66 0.0
67 0.0
68 0.0
69 0.0
70 0.000403130681610
71 0.0
72 -0.000005100156188
73 0.0
74 0.0
75 -0.000002280859186
76 0.0
77 0.0
78 0.000009123436745
79 0.0
80 0.0
81 0.0
82 0.000006698381417
83 0.0
84 0.0
85 0.000002995607237
86 0.0
87 0.0
88 -0.000011982428950
89 0.0
90 0.0
 Sym=     10.1
 Ene=       0.0201
 Spin= Alpha
 Occup=   -0.000000
1 0.007993238523189
2 0.092673540632790
3 0.045886806533268
4 -0.13638038949281
5 0.0
6 0.0
7 0.54378213174724
8 0.0
9 0.0
10 -0.19766329742713
11 0.0
12 0.0
13 0.68759317800145
14 -0.003820587480339
15 -0.003820587480339
16 0.007641174960678
17 0.0
18 0.0
19 0.0
20 0.017480915166068
21 0.017480915166068
22 -0.034961830332136
23 0.0
24 0.0
25 0.0
26 0.0
27 0.0
28 -0.002371967585648
29 0.0
30 0.0
31 0.001591164228580
32 0.0
33 0.0
34 0.001591164228580
35 0.0
36 -0.002151587073203
37 -0.021537024112289
38 0.000695872407436
39 0.009750854263851
40 -0.050010353415871
41 0.0
42 0.0
43 0.015025434640582
44 0.0
45 0.0
46 0.002953125408587
47 0.0
48 0.0
49 -0.009039808147602
50 0.0
51 0.0
52 0.052996607492435
53 0.000027243847811
54 0.000027243847811
55 -0.000054487695622
56 0.0
57 0.0
58 0.0
59 -0.000430152257749
60 -0.000430152257749
61 0.000860304515497
62 0.0
63 0.0
64 0.0
65 0.000926192619181
66 0.000926192619181
67 -0.001852385238362
68 0.0
69 0.0
70 0.0
71 0.0
72 0.0
73 -0.000014172575959
74 0.0
75 0.0
76 0.000009507252978
77 0.0
78 0.0
79 0.000009507252978
80 0.0
81 0.0
82 0.0
83 0.000029486798408
84 0.0
85 0.0
86 -0.000019780345704
87 0.0
88 0.0
89 -0.000019780345704
90 0.0
 Sym=     11.1
 Ene=       0.1012
 Spin= Alpha
 Occup=   -0.000000
1 0.0
2 0.0
3 0.0
4 0.0
5 0.0
6 0.54134069242250
7 0.0
8 0.0
9 1.05203538226887
10 0.0
11 0.0
12 -1.37168155923554
13 0.0
14 0.0
15 0.0
16 0.0
17 0.0
18 0.0
19 -0.000644816700694
20 0.0
21 0.0
22 0.0
23 0.0
24 0.0
25 -0.014053119840472
26 0.0
27 0.000613444906995
28 0.0
29 0.0
30 0.000274340902498
31 0.0
32 0.0
33 -0.001097363609993
34 0.0
35 0.0
36 0.0
37 0.0
38 0.0
39 0.0
40 0.0
41 0.0
42 0.010084757074356
43 0.0
44 0.0
45 -0.001347899894406
46 0.0
47 0.0
48 0.006346468430123
49 0.0
50 0.0
51 -0.014460761952652
52 0.0
53 0.0
54 0.0
55 0.0
56 0.0
57 0.0
58 0.000020789160289
59 0.0
60 0.0
61 0.0
62 0.0
63 0.0
64 0.000218822115087
65 0.0
66 0.0
67 0.0
68 0.0
69 0.0
70 -0.000053325865938
71 0.0
72 0.000006747413295
73 0.0
74 0.0
75 0.000003017534960
76 0.0
77 0.0
78 -0.000012070139840
79 0.0
80 0.0
81 0.0
82 -0.000012230419640
83 0.0
84 0.0
85 -0.000005469609942
86 0.0
87 0.0
88 0.000021878439767
89 0.0
90 0.0
 Sym=     12.1
 Ene=       0.1012
 Spin= Alpha
 Occup=   -0.000000
1 0.0
2 0.0
3 0.0
4 0.0
5 0.54134069242248
6 0.0
7 0.0
8 1.05203538226889
9 0.0
10 0.0
11 -1.37168155923553
12 0.0
13 0.0
14 0.0
15 0.0
16 0.0
17 0.0
18 -0.000644816700689
19 0.0
20 0.0
21 0.0
22 0.0
23 0.0
24 -0.014053119840477
25 0.0
26 0.000613444906995
27 0.0
28 0.0
29 0.000274340902498
30 0.0
31 0.0
32 -0.001097363609994
33 0.0
34 0.0
35 0.0
36 0.0
37 0.0
38 0.0
39 0.0
40 0.0
41 0.010084757074356
42 0.0
43 0.0
44 -0.001347899894406
45 0.0
46 0.0
47 0.006346468430123
48 0.0
49 0.0
50 -0.014460761952651
51 0.0
52 0.0
53 0.0
54 0.0
55 0.0
56 0.0
57 0.000020789160289
58 0.0
59 0.0
60 0.0
61 0.0
62 0.0
63 0.000218822115087
64 0.0
65 0.0
66 0.0
67 0.0
68 0.0
69 -0.000053325865938
70 0.0
71 0.000006747413295
72 0.0
73 0.0
74 0.000003017534960
75 0.0
76 0.0
77 -0.000012070139839
78 0.0
79 0.0
80 0.0
81 -0.000012230419640
82 0.0
83 0.0
84 -0.000005469609942
85 0.0
86 0.0
87 0.000021878439767
88 0.0
89 0.0
90 0.0
 Sym=     13.1
 Ene=       0.1037
 Spin= Alpha
 Occup=   -0.000000
1 -0.042709898296495
2 -0.50981605033287
3 -0.27818172581074
4 0.79413487470052
5 0.0
6 0.0
7 0.52693391673525
8 0.0
9 0.0
10 1.01514243681127
11 0.0
12 0.0
13 -1.36257817704463
14 0.002471387609954
15 0.002471387609954
16 -0.004942775219907
17 0.0
18 0.0
19 0.0
20 -0.002302355662261
21 -0.002302355662261
22 0.004604711324522
23 0.0
24 0.0
25 0.0
26 0.0
27 0.0
28 0.000390686127776
29 0.0
30 0.0
31 -0.000262080221872
32 0.0
33 0.0
34 -0.000262080221872
35 0.0
36 0.001349498887196
37 0.023461289640319
38 -0.000069868163427
39 0.002129045702086
40 0.039263133231852
41 0.0
42 0.0
43 0.000445406896309
44 0.0
45 0.0
46 -0.007017426002650
47 0.0
48 0.0
49 0.026203754259381
50 0.0
51 0.0
52 -0.11244062166671
53 -0.000099068401950
54 -0.000099068401950
55 0.000198136803900
56 0.0
57 0.0
58 0.0
59 0.000731353355638
60 0.000731353355638
61 -0.001462706711276
62 0.0
63 0.0
64 0.0
65 -0.002223614666995
66 -0.002223614666995
67 0.004447229333991
68 0.0
69 0.0
70 0.0
71 0.0
72 0.0
73 0.000035574753319
74 0.0
75 0.0
76 -0.000023864270011
77 0.0
78 0.0
79 -0.000023864270011
80 0.0
81 0.0
82 0.0
83 -0.000130682279201
84 0.0
85 0.0
86 0.000087664337925
87 0.0
88 0.0
89 0.000087664337925
90 0.0
 Sym=     14.1
 Ene=       0.1197
 Spin= Alpha
 Occup=   -0.000000
1 0.13052550287922
2 1.62483470689361
3 0.94332940791627
4 -2.60412976874977
5 0.0
6 0.0
7 0.13474393213109
8 0.0
9 0.0
10 0.31021029387039
11 0.0
12 0.0
13 -0.43194314976539
14 0.001662543355161
15 0.001662543355161
16 -0.003325086710321
17 0.0
18 0.0
19 0.0
20 -0.002224671777683
21 -0.002224671777683
22 0.004449343555367
23 0.0
24 0.0
25 0.0
26 0.0
27 0.0
28 -0.000962625873242
29 0.0
30 0.0
31 0.000645749066841
32 0.0
33 0.0
34 0.000645749066841
35 0.0
36 -0.005074014775402
37 0.013931616063940
38 0.003764948610726
39 0.069449219563794
40 -0.086591845842369
41 0.0
42 0.0
43 -0.030530114066353
44 0.0
45 0.0
46 0.003329710372138
47 0.0
48 0.0
49 -0.017258133874431
50 0.0
51 0.0
52 0.042060349981548
53 0.000022339734025
54 0.000022339734025
55 -0.000044679468050
56 0.0
57 0.0
58 0.0
59 0.000185924388463
60 0.000185924388463
61 -0.000371848776925
62 0.0
63 0.0
64 0.0
65 0.000021811390560
66 0.000021811390560
67 -0.000043622781120
68 0.0
69 0.0
70 0.0
71 0.0
72 0.0
73 0.000016518143536
74 0.0
75 0.0
76 -0.000011080707542
77 0.0
78 0.0
79 -0.000011080707542
80 0.0
81 0.0
82 0.0
83 -0.000031204281956
84 0.0
85 0.0
86 0.000020932468692
87 0.0
88 0.0
89 0.000020932468692
90 0.0
 Sym=     15.1
 Ene=       0.1783
 Spin= Alpha
 Occup=   -0.000000
1 0.008915096094281
2 0.10751111127531
3 0.081396547846965
4 -0.21069436914341
5 0.0
6 0.0
7 -0.022825278848606
8 0.0
9 0.0
10 0.064378485394831
11 0.0
12 0.0
13 -0.071575467121290
14 0.075803770738615
15 0.075803770738615
16 -0.15160754147723
17 0.0
18 0.0
19 0.0
20 -0.50795213137586
21 -0.50795213137586
22 1.01590426275172
23 0.0
24 0.0
25 0.0
26 0.0
27 0.0
28 -0.001072060381508
29 0.0
30 0.0
31 0.000719159966711
32 0.0
33 0.0
34 0.000719159966711
35 0.0
36 0.009694263643517
37 0.002182829385378
38 -0.006178960750666
39 -0.11430969801868
40 0.18477321980537
41 0.0
42 0.0
43 0.075021094442960
44 0.0
45 0.0
46 -0.022643792579224
47 0.0
48 0.0
49 0.099894039716713
50 0.0
51 0.0
52 -0.34840312836454
53 -0.000163500596570
54 -0.000163500596570
55 0.000327001193139
56 0.0
57 0.0
58 0.0
59 0.000829064114044
60 0.000829064114044
61 -0.001658128228089
62 0.0
63 0.0
64 0.0
65 -0.003092816954535
66 -0.003092816954535
67 0.006185633909070
68 0.0
69 0.0
70 0.0
71 0.0
72 0.0
73 0.000051175324840
74 0.0
75 0.0
76 -0.000034329451534
77 0.0
78 0.0
79 -0.000034329451534
80 0.0
81 0.0
82 0.0
83 -0.000194363033700
84 0.0
85 0.0
86 0.000130382686700
87 0.0
88 0.0
89 0.000130382686700
90 0.0
 Sym=     16.1
 Ene=       0.1841
 Spin= Alpha
 Occup=   -0.000000
1 0.0
2 0.0
3 0.0
4 0.0
5 0.0
6 0.0
7 0.0
8 0.0
9 0.0
10 0.0
11 0.0
12 0.0
13 0.0
14 0.0
15 0.0
16 0.0
17 -0.15683041266819
18 0.0
19 0.0
20 0.0
21 0.0
22 0.0
23 1.09931844100625
24 0.0
25 0.0
26 0.0
27 0.0
28 0.0
29 0.0
30 0.0
31 0.0
32 0.0
33 0.0
34 0.0
35 -0.007687503271273
36 0.0
37 0.0
38 0.0
39 0.0
40 0.0
41 0.0
42 0.0
43 0.0
44 0.0
45 0.0
46 0.0
47 0.0
48 0.0
49 0.0
50 0.0
51 0.0
52 0.0
53 0.0
54 0.0
55 0.0
56 0.000007612160880
57 0.0
58 0.0
59 0.0
60 0.0
61 0.0
62 -0.000038414240930
63 0.0
64 0.0
65 0.0
66 0.0
67 0.0
68 0.000139018389966
69 0.0
70 0.0
71 0.0
72 0.0
73 0.0
74 0.0
75 0.0
76 0.0
77 0.0
78 0.0
79 0.0
80 0.000002307182677
81 0.0
82 0.0
83 0.0
84 0.0
85 0.0
86 0.0
87 0.0
88 0.0
89 0.0
90 -0.000008474626220
 Sym=     17.1
 Ene=       0.1841
 Spin= Alpha
 Occup=   -0.000000
1 0.0
2 0.0
3 0.0
4 0.0
5 0.0
6 0.0
7 0.0
8 0.0
9 0.0
10 0.0
11 0.0
12 0.0
13 0.0
14 0.13581912145666
15 -0.13581912145666
16 0.0
17 0.0
18 0.0
19 0.0
20 -0.95203769676012
21 0.95203769676012
22 0.0
23 0.0
24 0.0
25 0.0
26 0.0
27 0.0
28 0.0
29 0.0
30 0.0
31 0.006657573124596
32 0.0
33 0.0
34 -0.006657573124596
35 0.0
36 0.0
37 0.0
38 0.0
39 0.0
40 0.0
41 0.0
42 0.0
43 0.0
44 0.0
45 0.0
46 0.0
47 0.0
48 0.0
49 0.0
50 0.0
51 0.0
52 0.0
53 -0.000006592324700
54 0.000006592324700
55 0.0
56 0.0
57 0.0
58 0.0
59 0.000033267708512
60 -0.000033267708512
61 0.0
62 0.0
63 0.0
64 0.0
65 -0.000120393457304
66 0.000120393457304
67 0.0
68 0.0
69 0.0
70 0.0
71 0.0
72 0.0
73 0.0
74 0.0
75 0.0
76 -0.000001998078810
77 0.0
78 0.0
79 0.000001998078810
80 0.0
81 0.0
82 0.0
83 0.0
84 0.0
85 0.0
86 0.000007339241594
87 0.0
88 0.0
89 -0.000007339241594
90 0.0
 Sym=     18.1
 Ene=       0.1848
 Spin= Alpha
 Occup=   -0.000000
1 0.0
2 0.0
3 0.0
4 0.0
5 0.0
6 0.058731353906089
7 0.0
8 0.0
9 -0.009696326592474
10 0.0
11 0.0
12 -0.035011820428937
13 0.0
14 0.0
15 0.0
16 0.0
17 0.0
18 0.0
19 -0.15539201180563
20 0.0
21 0.0
22 0.0
23 0.0
24 0.0
25 1.08879096864755
26 0.0
27 0.005967659988128
28 0.0
29 0.0
30 0.002668818680012
31 0.0
32 0.0
33 -0.010675274720048
34 0.0
35 0.0
36 0.0
37 0.0
38 0.0
39 0.0
40 0.0
41 0.0
42 -0.029494933698620
43 0.0
44 0.0
45 0.009464579338907
46 0.0
47 0.0
48 -0.040969903286258
49 0.0
50 0.0
51 0.13910140407391
52 0.0
53 0.0
54 0.0
55 0.0
56 0.0
57 0.0
58 -0.000105971379647
59 0.0
60 0.0
61 0.0
62 0.0
63 0.0
64 0.000536031864227
65 0.0
66 0.0
67 0.0
68 0.0
69 0.0
70 -0.001961131807165
71 0.0
72 0.000012582348909
73 0.0
74 0.0
75 0.000005626997495
76 0.0
77 0.0
78 -0.000022507989981
79 0.0
80 0.0
81 0.0
82 -0.000046784983883
83 0.0
84 0.0
85 -0.000020922880858
86 0.0
87 0.0
88 0.000083691523431
89 0.0
90 0.0
 Sym=     19.1
 Ene=       0.1848
 Spin= Alpha
 Occup=   -0.000000
1 0.0
2 0.0
3 0.0
4 0.0
5 0.058731353906097
6 0.0
7 0.0
8 -0.009696326592475
9 0.0
10 0.0
11 -0.035011820428947
12 0.0
13 0.0
14 0.0
15 0.0
16 0.0
17 0.0
18 -0.15539201180564
19 0.0
20 0.0
21 0.0
22 0.0
23 0.0
24 1.08879096864755
25 0.0
26 0.005967659988127
27 0.0
28 0.0
29 0.002668818680011
30 0.0
31 0.0
32 -0.010675274720046
33 0.0
34 0.0
35 0.0
36 0.0
37 0.0
38 0.0
39 0.0
40 0.0
41 -0.029494933698624
42 0.0
43 0.0
44 0.009464579338908
45 0.0
46 0.0
47 -0.040969903286262
48 0.0
49 0.0
50 0.13910140407392
51 0.0
52 0.0
53 0.0
54 0.0
55 0.0
56 0.0
57 -0.000105971379647
58 0.0
59 0.0
60 0.0
61 0.0
62 0.0
63 0.000536031864226
64 0.0
65 0.0
66 0.0
67 0.0
68 0.0
69 -0.001961131807164
70 0.0
71 0.000012582348909
72 0.0
73 0.0
74 0.000005626997495
75 0.0
76 0.0
77 -0.000022507989981
78 0.0
79 0.0
80 0.0
81 -0.000046784983883
82 0.0
83 0.0
84 -0.000020922880858
85 0.0
86 0.0
87 0.000083691523431
88 0.0
89 0.0
90 0.0
 Sym=     20.1
 Ene=       0.2409
 Spin= Alpha
 Occup=   -0.000000
1 0.0
2 0.0
3 0.0
4 0.0
5 0.0
6 0.10741002406595
7 0.0
8 0.0
9 0.010264797647201
10 0.0
11 0.0
12 -0.16703340109514
13 0.0
14 0.0
15 0.0
16 0.0
17 0.0
18 0.0
19 0.007264270386359
20 0.0
21 0.0
22 0.0
23 0.0
24 0.0
25 -0.14265714469740
26 0.0
27 -0.009940881427909
28 0.0
29 0.0
30 -0.004445697325814
31 0.0
32 0.0
33 0.017782789303255
34 0.0
35 0.0
36 0.0
37 0.0
38 0.0
39 0.0
40 0.0
41 0.0
42 -0.25291454785837
43 0.0
44 0.0
45 0.065562307634816
46 0.0
47 0.0
48 -0.31143069664884
49 0.0
50 0.0
51 1.17460162301919
52 0.0
53 0.0
54 0.0
55 0.0
56 0.0
57 0.0
58 -0.000051262769530
59 0.0
60 0.0
61 0.0
62 0.0
63 0.0
64 0.000368544908750
65 0.0
66 0.0
67 0.0
68 0.0
69 0.0
70 -0.001059122077615
71 0.0
72 0.000001281976853
73 0.0
74 0.0
75 0.000000573317478
76 0.0
77 0.0
78 -0.000002293269911
79 0.0
80 0.0
81 0.0
82 0.000000402347512
83 0.0
84 0.0
85 0.000000179935277
86 0.0
87 0.0
88 -0.000000719741109
89 0.0
90 0.0
 Sym=     21.1
 Ene=       0.2409
 Spin= Alpha
 Occup=   -0.000000
1 0.0
2 0.0
3 0.0
4 0.0
5 -0.10741002406593
6 0.0
7 0.0
8 -0.010264797647220
9 0.0
10 0.0
11 0.16703340109513
12 0.0
13 0.0
14 0.0
15 0.0
16 0.0
17 0.0
18 -0.007264270386363
19 0.0
20 0.0
21 0.0
22 0.0
23 0.0
24 0.14265714469742
25 0.0
26 0.009940881427909
27 0.0
28 0.0
29 0.004445697325814
30 0.0
31 0.0
32 -0.017782789303255
33 0.0
34 0.0
35 0.0
36 0.0
37 0.0
38 0.0
39 0.0
40 0.0
41 0.25291454785837
42 0.0
43 0.0
44 -0.065562307634815
45 0.0
46 0.0
47 0.31143069664884
48 0.0
49 0.0
50 -1.17460162301919
51 0.0
52 0.0
53 0.0
54 0.0
55 0.0
56 0.0
57 0.000051262769530
58 0.0
59 0.0
60 0.0
61 0.0
62 0.0
63 -0.000368544908750
64 0.0
65 0.0
66 0.0
67 0.0
68 0.0
69 0.001059122077615
70 0.0
71 -0.000001281976853
72 0.0
73 0.0
74 -0.000000573317478
75 0.0
76 0.0
77 0.000002293269911
78 0.0
79 0.0
80 0.0
81 -0.000000402347512
82 0.0
83 0.0
84 -0.000000179935277
85 0.0
86 0.0
87 0.000000719741109
88 0.0
89 0.0
90 0.0
 Sym=     22.1
 Ene=       0.2494
 Spin= Alpha
 Occup=   -0.000000
1 -0.006514758122751
2 -0.061101891322019
3 -0.052129907308021
4 0.14049760600161
5 0.0
6 0.0
7 0.38698461878628
8 0.0
9 0.0
10 -0.21538079321481
11 0.0
12 0.0
13 -0.13454684554182
14 0.008296205581117
15 0.008296205581117
16 -0.016592411162233
17 0.0
18 0.0
19 0.0
20 -0.10048929053290
21 -0.10048929053290
22 0.20097858106580
23 0.0
24 0.0
25 0.0
26 0.0
27 0.0
28 -0.025594039561152
29 0.0
30 0.0
31 0.017169003683267
32 0.0
33 0.0
34 0.017169003683267
35 0.0
36 0.042063804780150
37 -0.039016140424669
38 -0.028187431490898
39 -0.58325450854365
40 0.99520980420441
41 0.0
42 0.0
43 -0.18574147166005
44 0.0
45 0.0
46 0.047726332784443
47 0.0
48 0.0
49 -0.22832455206440
50 0.0
51 0.0
52 0.86948392492123
53 -0.000016645097693
54 -0.000016645097693
55 0.000033290195385
56 0.0
57 0.0
58 0.0
59 0.000026605422941
60 0.000026605422941
61 -0.000053210845883
62 0.0
63 0.0
64 0.0
65 -0.000291431923643
66 -0.000291431923643
67 0.000582863847286
68 0.0
69 0.0
70 0.0
71 0.0
72 0.0
73 0.000007600978318
74 0.0
75 0.0
76 -0.000005098891264
77 0.0
78 0.0
79 -0.000005098891264
80 0.0
81 0.0
82 0.0
83 -0.000036722557548
84 0.0
85 0.0
86 0.000024634240495
87 0.0
88 0.0
89 0.000024634240495
90 0.0
 Sym=     23.1
 Ene=       0.2793
 Spin= Alpha
 Occup=   -0.000000
1 -0.014497813185531
2 -0.26089816750492
3 -0.25448060004220
4 0.57673989066506
5 0.0
6 0.0
7 -0.034901329426019
8 0.0
9 0.0
10 -0.21566033179498
11 0.0
12 0.0
13 0.46718073778472
14 -0.003164009936184
15 -0.003164009936184
16 0.006328019872367
17 0.0
18 0.0
19 0.0
20 -0.17771694980533
21 -0.17771694980533
22 0.35543389961065
23 0.0
24 0.0
25 0.0
26 0.0
27 0.0
28 -0.064477107835641
29 0.0
30 0.0
31 0.043252558833923
32 0.0
33 0.0
34 0.043252558833923
35 0.0
36 -0.045239230961296
37 0.050627741865302
38 0.030395850998023
39 0.65959396732357
40 -1.17915732306672