
 Primary working directories    : /local/22669281.1.eddie
 Secondary working directories  : /local/22669281.1.eddie
 Wavefunction directory         : /home/msimmerm/wfu/
 Main file repository           : /local/22669281.1.eddie/

 SHA1      : c1a8c69cbe265860639293024702cdb9dae59da4
 NAME      : 2012.1.22
 ARCHNAME  : Linux/x86_64
 FC        : /usr/bin/gfortran
 FCVERSION : 4.8.5
 BLASLIB   : -L/usr/lib64 -lblas
 id        : edinburgh

 Nodes                 nprocs
 node2c03.ecdf.ed.ac.uk    1

 Using customized tuning parameters: mindgm=****************; mindgv=****************; mindgc=****************; mindgr=****************; noblas=0; minvec=7
 default implementation of scratch files=df  

 ***,LiF
 memory,800,m
 gprint,civector,orbitals,angles=-1,distance=-1
 gthresh,twoint=1.0d-13
 gthresh,energy=1.0d-7,gradient=1.0d-2
 gthresh,thrpun=0.000000001
 punch,lif_ac_m.pun,new
 
 orient,noorient
 symmetry,nosym
 angstrom
 geomtyp=xyz
 geometry={
 2
 LiF
 Li   0.0000000000   0.0000000000  -3.1790000000
 F    0.0000000000   0.0000000000   3.1790000000
 }
 
 basis,f=avtz,li=vtz
 
 {hf
 wf,12,1
 }
 
 {multi
 failsafe
 maxit,40
 config,det
 occ,7
 closed,3
 wf,12,1
 state,4
 orbital,2140.3
 }
 
 put,molden,lif_ac_m.mld

 Variables initialized (782), CPU time= 0.00 sec
 Commands  initialized (547), CPU time= 0.01 sec, 517 directives.
 Default parameters read. Elapsed time= 0.10 sec

 Checking input...
 Passed
1


                                         ***  PROGRAM SYSTEM MOLPRO  ***
                         Copyright, University College Cardiff Consultants Limited, 2008

                                    Version 2012.1 linked Nov 29 2016 14:47:39


 **********************************************************************************************************************************
 LABEL *   LiF                                                                           
 Linux-3.10.0-1160.49.1.el7.x86_64/node2c03.ecdf.ed.ac.uk(x86_64) 64 bit serial version  DATE: 16-Aug-22          TIME: 14:27:35  
 **********************************************************************************************************************************

 SHA1:             c1a8c69cbe265860639293024702cdb9dae59da4
 **********************************************************************************************************************************


 THRESHOLDS:

 ZERO    =  1.00D-12  ONEINT  =  1.00D-12  TWOINT  =  1.00D-13  PREFAC  =  1.00D-14  LOCALI  =  1.00D-09  EORDER  =  1.00D-04
 ENERGY  =  0.00D+00  ETEST   =  0.00D+00  EDENS   =  0.00D+00  THRDEDEF=  1.00D-06  GRADIENT=  1.00D-02  STEP    =  1.00D-03
 ORBITAL =  1.00D-05  CIVEC   =  1.00D-05  COEFF   =  1.00D-04  PRINTCI =  5.00D-02  PUNCHCI =  9.90D+01  OPTGRAD =  3.00D-04
 OPTENERG=  1.00D-06  OPTSTEP =  3.00D-04  THRGRAD =  1.00D-10  COMPRESS=  1.00D-11  VARMIN  =  1.00D-07  VARMAX  =  1.00D-03
 THRDOUB =  0.00D+00  THRDIV  =  1.00D-05  THRRED  =  1.00D-07  THRPSP  =  1.00D+00  THRDC   =  1.00D-10  THRCS   =  1.00D-10
 THRNRM  =  1.00D-08  THREQ   =  0.00D+00  THRDE   =  1.00D+00  THRREF  =  1.00D-05  SPARFAC =  1.00D+00  THRDLP  =  1.00D-07
 THRDIA  =  1.00D-10  THRDLS  =  1.00D-07  THRGPS  =  0.00D+00  THRKEX  =  0.00D+00  THRDIS  =  2.00D-01  THRVAR  =  1.00D-10
 THRLOC  =  1.00D-06  THRGAP  =  1.00D-06  THRLOCT = -1.00D+00  THRGAPT = -1.00D+00  THRORB  =  1.00D-06  THRMLTP =  0.00D+00
 THRCPQCI=  1.00D-10  KEXTA   =  0.00D+00  THRCOARS=  0.00D+00  SYMTOL  =  1.00D-06  GRADTOL =  1.00D-06  THROVL  =  1.00D-08
 THRORTH =  1.00D-08  GRID    =  1.00D-06  GRIDMAX =  1.00D-03  DTMAX   =  0.00D+00  THROCCDE=  1.00D-01  THROCCDE=  1.00D-01



 THRESHOLDS:

 ZERO    =  1.00D-12  ONEINT  =  1.00D-12  TWOINT  =  1.00D-13  PREFAC  =  1.00D-14  LOCALI  =  1.00D-09  EORDER  =  1.00D-04
 ENERGY  =  1.00D-07  ETEST   =  0.00D+00  EDENS   =  0.00D+00  THRDEDEF=  1.00D-06  GRADIENT=  1.00D-02  STEP    =  1.00D-03
 ORBITAL =  1.00D-05  CIVEC   =  1.00D-05  COEFF   =  1.00D-04  PRINTCI =  5.00D-02  PUNCHCI =  9.90D+01  OPTGRAD =  3.00D-04
 OPTENERG=  1.00D-06  OPTSTEP =  3.00D-04  THRGRAD =  1.00D-10  COMPRESS=  1.00D-11  VARMIN  =  1.00D-07  VARMAX  =  1.00D-03
 THRDOUB =  0.00D+00  THRDIV  =  1.00D-05  THRRED  =  1.00D-07  THRPSP  =  1.00D+00  THRDC   =  1.00D-10  THRCS   =  1.00D-10
 THRNRM  =  1.00D-08  THREQ   =  0.00D+00  THRDE   =  1.00D+00  THRREF  =  1.00D-05  SPARFAC =  1.00D+00  THRDLP  =  1.00D-07
 THRDIA  =  1.00D-10  THRDLS  =  1.00D-07  THRGPS  =  0.00D+00  THRKEX  =  0.00D+00  THRDIS  =  2.00D-01  THRVAR  =  1.00D-10
 THRLOC  =  1.00D-06  THRGAP  =  1.00D-06  THRLOCT = -1.00D+00  THRGAPT = -1.00D+00  THRORB  =  1.00D-06  THRMLTP =  0.00D+00
 THRCPQCI=  1.00D-10  KEXTA   =  0.00D+00  THRCOARS=  0.00D+00  SYMTOL  =  1.00D-06  GRADTOL =  1.00D-06  THROVL  =  1.00D-08
 THRORTH =  1.00D-08  GRID    =  1.00D-06  GRIDMAX =  1.00D-03  DTMAX   =  0.00D+00  THROCCDE=  1.00D-01  THROCCDE=  1.00D-01



 THRESHOLDS:

 ZERO    =  1.00D-12  ONEINT  =  1.00D-12  TWOINT  =  1.00D-13  PREFAC  =  1.00D-14  LOCALI  =  1.00D-09  EORDER  =  1.00D-04
 ENERGY  =  1.00D-07  ETEST   =  0.00D+00  EDENS   =  0.00D+00  THRDEDEF=  1.00D-06  GRADIENT=  1.00D-02  STEP    =  1.00D-03
 ORBITAL =  1.00D-05  CIVEC   =  1.00D-05  COEFF   =  1.00D-04  PRINTCI =  5.00D-02  PUNCHCI =  1.00D-09  OPTGRAD =  3.00D-04
 OPTENERG=  1.00D-06  OPTSTEP =  3.00D-04  THRGRAD =  1.00D-10  COMPRESS=  1.00D-11  VARMIN  =  1.00D-07  VARMAX  =  1.00D-03
 THRDOUB =  0.00D+00  THRDIV  =  1.00D-05  THRRED  =  1.00D-07  THRPSP  =  1.00D+00  THRDC   =  1.00D-10  THRCS   =  1.00D-10
 THRNRM  =  1.00D-08  THREQ   =  0.00D+00  THRDE   =  1.00D+00  THRREF  =  1.00D-05  SPARFAC =  1.00D+00  THRDLP  =  1.00D-07
 THRDIA  =  1.00D-10  THRDLS  =  1.00D-07  THRGPS  =  0.00D+00  THRKEX  =  0.00D+00  THRDIS  =  2.00D-01  THRVAR  =  1.00D-10
 THRLOC  =  1.00D-06  THRGAP  =  1.00D-06  THRLOCT = -1.00D+00  THRGAPT = -1.00D+00  THRORB  =  1.00D-06  THRMLTP =  0.00D+00
 THRCPQCI=  1.00D-10  KEXTA   =  0.00D+00  THRCOARS=  0.00D+00  SYMTOL  =  1.00D-06  GRADTOL =  1.00D-06  THROVL  =  1.00D-08
 THRORTH =  1.00D-08  GRID    =  1.00D-06  GRIDMAX =  1.00D-03  DTMAX   =  0.00D+00  THROCCDE=  1.00D-01  THROCCDE=  1.00D-01



 PUNCHFILE LIF_AC_M.PUN OPENED

 Variable memory set to  800000000 words,  buffer space   230000 words

 SETTING GEOMTYP        =    XYZ
 ZSYMEL=NOSYM
 ZUNIT=ANG

 SETTING BASIS          =    F=AVTZ,LI=VTZ


 Recomputing integrals since basis changed


 Using spherical harmonics

 Library entry LI     S cc-pVTZ              selected for orbital group  1
 Library entry LI     P cc-pVTZ              selected for orbital group  1
 Library entry LI     D cc-pVTZ              selected for orbital group  1
 Library entry LI     F cc-pVTZ              selected for orbital group  1
 Library entry F      S aug-cc-pVTZ          selected for orbital group  2
 Library entry F      P aug-cc-pVTZ          selected for orbital group  2
 Library entry F      D aug-cc-pVTZ          selected for orbital group  2
 Library entry F      F aug-cc-pVTZ          selected for orbital group  2

1PROGRAM * SEWARD (Integral evaluation for generally contracted gaussian basis sets)     Author: Roland Lindh, 1990

 Geometry written to block  1 of record 700


 Point group  C1  



 ATOMIC COORDINATES

 NR  ATOM    CHARGE       X              Y              Z

   1  LI      3.00    0.000000000    0.000000000   -6.007439372
   2  F       9.00    0.000000000    0.000000000    6.007439372

 NUCLEAR CHARGE:                   12
 NUMBER OF PRIMITIVE AOS:         115
 NUMBER OF SYMMETRY AOS:          101
 NUMBER OF CONTRACTIONS:           76   (  76A   )
 NUMBER OF CORE ORBITALS:           2   (   2A   )
 NUMBER OF VALENCE ORBITALS:        8   (   8A   )


 NUCLEAR REPULSION ENERGY    2.24721369

 EXTRA SYMMETRY OF AOS IN SYMMETRY 1:   1 1 1 1 2 3 1 2 3 1   2 3 1 1 4 2 5 3 1 4   2 5 3 2 3 1 6 4 7 5   1 1 1 1 1 2 3 1 2 3
                                        1 2 3 1 2 3 1 1 4 2   5 3 1 4 2 5 3 1 4 2   5 3 2 3 1 6 4 7 5 2   3 1 6 4 7 5

 Eigenvalues of metric

         1 0.130E-02 0.112E-01 0.175E-01 0.177E-01 0.177E-01 0.515E-01 0.517E-01 0.517E-01


 Contracted 2-electron integrals neglected if value below      1.0D-13
 AO integral compression algorithm  1   Integral accuracy      1.0D-13

     6.816 MB (compressed) written to integral file ( 13.9%)


 NUMBER OF SORTED TWO-ELECTRON INTEGRALS:    4282201.     BUFFER LENGTH:  32768
 NUMBER OF SEGMENTS:   1  SEGMENT LENGTH:    4282201      RECORD LENGTH: 524288

 Memory used in sort:       4.84 MW

 SORT1 READ     5977830. AND WROTE      762709. INTEGRALS IN      3 RECORDS. CPU TIME:     0.03 SEC, REAL TIME:     0.04 SEC
 SORT2 READ      762709. AND WROTE     4282201. INTEGRALS IN     26 RECORDS. CPU TIME:     0.12 SEC, REAL TIME:     0.12 SEC

 FILE SIZES:   FILE 1:    14.6 MBYTE,  FILE 4:    12.6 MBYTE,   TOTAL:     27.2 MBYTE

 OPERATOR DM      FOR CENTER  0  COORDINATES:    0.000000    0.000000    0.000000


 **********************************************************************************************************************************
 DATASETS  * FILE   NREC   LENGTH (MB)   RECORD NAMES
              1      19       11.77       500      610      700      900      950      970     1000      129      960     1100   
                                          VAR    BASINP    GEOM    SYMINP    ZMAT    AOBASIS   BASIS     P2S    ABASIS      S 
                                         1400     1410     1200     1210     1080     1600     1650     1300     1700   
                                           T        V       H0       H01     AOSYM     SMH    MOLCAS    ERIS     OPER   

 PROGRAMS   *        TOTAL       INT
 CPU TIMES  *         0.73      0.64
 REAL TIME  *         1.57 SEC
 DISK USED  *        27.48 MB      
 **********************************************************************************************************************************

1PROGRAM * RHF-SCF (CLOSED SHELL)       Authors: W. Meyer, H.-J. Werner


 NUMBER OF ELECTRONS:       6+    6-    SPACE SYMMETRY=1    SPIN SYMMETRY: Singlet 
 CONVERGENCE THRESHOLDS:    3.16E-06 (Density)    1.00E-08 (Energy)
 MAX. NUMBER OF ITERATIONS:       60
 INTERPOLATION TYPE:            DIIS
 INTERPOLATION STEPS:              2 (START)      1 (STEP)
 LEVEL SHIFTS:                  0.00 (CLOSED)  0.00 (OPEN) 



 Orbital guess generated from atomic densities. Full valence occupancy:    7

 Molecular orbital dump at record        2100.2

 ITERATION    DDIFF          GRAD             ENERGY        2-EL.EN.            DIPOLE MOMENTS         DIIS   ORB.
    1      0.000D+00      0.000D+00      -106.67461569    101.277829    0.00000    0.00000  -12.01486    0    start
    2      0.000D+00      0.167D-01      -105.42371571     69.727650   -0.00000   -0.00000   14.17306    1    diag
    3      0.512D-01      0.472D-01      -106.74820146     98.369785    0.00000   -0.00000  -11.99566    2    diag
    4      0.477D-01      0.763D-02      -106.76849344     96.455718   -0.00000   -0.00000  -11.97513    3    diag
    5      0.346D-02      0.215D-02      -106.77024909     96.005093    0.00000   -0.00000  -11.96552    4    diag
    6      0.107D-02      0.892D-03      -106.77058580     95.813916    0.00000   -0.00000  -11.95972    5    diag
    7      0.576D-03      0.322D-03      -106.77063732     95.733468   -0.00000    0.00000  -11.95630    6    diag
    8      0.299D-03      0.590D-04      -106.77063906     95.717761   -0.00000   -0.00000  -11.95550    7    diag
    9      0.576D-04      0.727D-05      -106.77063910     95.715447    0.00000    0.00000  -11.95529    8    diag
   10      0.111D-04      0.692D-06      -106.77063910     95.715271    0.00000    0.00000  -11.95521    9    orth
   11      0.432D-05      0.681D-06      -106.77063910     95.715451    0.00000   -0.00000  -11.95520    9    diag
   12      0.849D-06      0.287D-07      -106.77063910     95.715459   -0.00000   -0.00000  -11.95520    0    orth

 Final occupancy:   6

 !RHF STATE 1.1 Energy               -106.770639103699
 Nuclear energy                         2.24721369
 One-electron energy                 -156.87558245
 Two-electron energy                   47.85772965
 Virial quotient                       -1.00102887
 !RHF STATE 1.1 Dipole moment          -0.00000000    -0.00000000   -11.95520098
 Dipole moment /Debye                  -0.00000000    -0.00000000   -30.38509972

 ELECTRON ORBITALS
 =================


   Orb  Occ    Energy  Couls-En    Coefficients

                                   1 1s      1 1s      1 1s      1 1s      1 2px     1 2py     1 2pz     1 2px     1 2py     1 2pz  
                                   1 2px     1 2py     1 2pz     1 3d0     1 3d2-    1 3d1+    1 3d2+    1 3d1-    1 3d0     1 3d2- 
                                   1 3d1+    1 3d2+    1 3d1-    1 4f1+    1 4f1-    1 4f0     1 4f3+    1 4f2-    1 4f3-    1 4f2+ 
                                   2 1s      2 1s      2 1s      2 1s      2 1s      2 2px     2 2py     2 2pz     2 2px     2 2py  
                                   2 2pz     2 2px     2 2py     2 2pz     2 2px     2 2py     2 2pz     2 3d0     2 3d2-    2 3d1+ 
                                   2 3d2+    2 3d1-    2 3d0     2 3d2-    2 3d1+    2 3d2+    2 3d1-    2 3d0     2 3d2-    2 3d1+ 
                                   2 3d2+    2 3d1-    2 4f1+    2 4f1-    2 4f0     2 4f3+    2 4f2-    2 4f3-    2 4f2+    2 4f1+ 
                                   2 4f1-    2 4f0     2 4f3+    2 4f2-    2 4f3-    2 4f2+ 

   1.1   2   -25.9176  -66.5844 -0.000032 -0.000146  0.000035  0.000131 -0.000000  0.000000  0.000074  0.000000  0.000000 -0.000109
                                 0.000000  0.000000  0.000071 -0.000017  0.000000 -0.000000 -0.000000 -0.000000  0.000027 -0.000000
                                 0.000000  0.000000  0.000000 -0.000000  0.000000  0.000005 -0.000000 -0.000000 -0.000000  0.000000
                                 0.999618 -0.000964  0.000342  0.001503 -0.000784 -0.000000 -0.000000 -0.000116  0.000000  0.000000
                                 0.000087  0.000000  0.000000  0.000006  0.000000  0.000000  0.000035 -0.000002  0.000000  0.000000
                                -0.000000  0.000000  0.000000 -0.000000 -0.000000  0.000000  0.000000 -0.000002  0.000000  0.000000
                                -0.000000 -0.000000 -0.000000 -0.000000 -0.000000 -0.000000  0.000000 -0.000000 -0.000000 -0.000000
                                -0.000000  0.000000  0.000000  0.000000  0.000000 -0.000000

   2.1   2    -2.7087   -7.9017  1.002719  0.008888 -0.006203 -0.004752 -0.000000  0.000000 -0.004227 -0.000000 -0.000000  0.002870
                                 0.000000 -0.000000  0.001310 -0.000036  0.000000  0.000000 -0.000000 -0.000000 -0.000001 -0.000000
                                -0.000000  0.000000  0.000000  0.000000  0.000000 -0.000006  0.000000 -0.000000 -0.000000  0.000000
                                 0.000021  0.000063 -0.000015 -0.000122  0.000135  0.000000 -0.000000  0.000004 -0.000000 -0.000000
                                -0.000014  0.000000 -0.000000  0.000035 -0.000000 -0.000000 -0.000098  0.000001 -0.000000  0.000000
                                 0.000000 -0.000000 -0.000005 -0.000000 -0.000000  0.000000  0.000000  0.000011 -0.000000  0.000000
                                 0.000000  0.000000  0.000000  0.000000  0.000000  0.000000 -0.000000 -0.000000  0.000000 -0.000000
                                -0.000000 -0.000000 -0.000000  0.000000  0.000000 -0.000000

   3.1   2    -1.1598  -10.2275  0.000084  0.000481  0.000005 -0.000524 -0.000000 -0.000000 -0.000345  0.000000  0.000000  0.000609
                                 0.000000 -0.000000 -0.000453  0.000086  0.000000 -0.000000 -0.000000 -0.000000 -0.000132 -0.000000
                                -0.000000  0.000000  0.000000  0.000000  0.000000 -0.000022 -0.000000 -0.000000 -0.000000  0.000000
                                -0.006958  0.951835 -0.001186  0.030044  0.037284  0.000000 -0.000000 -0.000811 -0.000000  0.000000
                                -0.000089 -0.000000 -0.000000 -0.001382 -0.000000 -0.000000 -0.000846  0.000005  0.000000 -0.000000
                                -0.000000 -0.000000 -0.000010 -0.000000  0.000000  0.000000  0.000000  0.000280 -0.000000 -0.000000
                                 0.000000 -0.000000  0.000000 -0.000000  0.000004  0.000000 -0.000000  0.000000  0.000000 -0.000000
                                 0.000000 -0.000020 -0.000000  0.000000 -0.000000 -0.000000

   4.1   2    -0.2648   -8.1067  0.000000 -0.000000 -0.000000  0.000000  0.000214  0.000789 -0.000000 -0.000245 -0.000901 -0.000000
                                 0.000468  0.001723  0.000000  0.000000  0.000000 -0.000076 -0.000000 -0.000280 -0.000000  0.000000
                                 0.000256  0.000000  0.000941  0.000058  0.000213  0.000000  0.000000  0.000000  0.000000 -0.000000
                                -0.000000 -0.000000  0.000000 -0.000000  0.000000  0.238778  0.878511 -0.000000 -0.000183 -0.000672
                                 0.000000  0.015337  0.056428 -0.000000  0.031041  0.114207 -0.000000  0.000000 -0.000000 -0.000055
                                 0.000000 -0.000204 -0.000000 -0.000000  0.000026 -0.000000  0.000095  0.000000  0.000000 -0.000804
                                 0.000000 -0.002957 -0.000003 -0.000011  0.000000  0.000000 -0.000000  0.000000 -0.000000  0.000038
                                 0.000140 -0.000000 -0.000000  0.000000 -0.000000  0.000000

   5.1   2    -0.2648   -8.1067 -0.000000  0.000000  0.000000 -0.000000  0.000789 -0.000214  0.000000 -0.000901  0.000245 -0.000000
                                 0.001723 -0.000468 -0.000000 -0.000000 -0.000000 -0.000280  0.000000  0.000076  0.000000 -0.000000
                                 0.000941 -0.000000 -0.000256  0.000213 -0.000058  0.000000  0.000000 -0.000000 -0.000000 -0.000000
                                -0.000000 -0.000000  0.000000  0.000000  0.000000  0.878511 -0.238778  0.000000 -0.000672  0.000183
                                 0.000000  0.056428 -0.015337  0.000000  0.114207 -0.031041  0.000000 -0.000000 -0.000000 -0.000204
                                -0.000000  0.000055 -0.000000 -0.000000  0.000095 -0.000000 -0.000026 -0.000000  0.000000 -0.002957
                                 0.000000  0.000804 -0.000011  0.000003 -0.000000  0.000000  0.000000 -0.000000  0.000000  0.000140
                                -0.000038  0.000000 -0.000000  0.000000  0.000000 -0.000000

   6.1   2    -0.2643   -8.0910  0.000398 -0.004234  0.002769 -0.007714 -0.000000  0.000000 -0.002681 -0.000000 -0.000000 -0.000537
                                -0.000000  0.000000 -0.005299  0.000713 -0.000000 -0.000000  0.000000 -0.000000 -0.003197  0.000000
                                 0.000000 -0.000000  0.000000  0.000000  0.000000 -0.000513 -0.000000  0.000000  0.000000 -0.000000
                                -0.000167  0.005370  0.000366  0.005711 -0.013311  0.000000  0.000000  0.908049 -0.000000  0.000000
                                -0.000613  0.000000  0.000000  0.058777  0.000000  0.000000  0.121286 -0.000257  0.000000 -0.000000
                                -0.000000  0.000000  0.000161  0.000000  0.000000 -0.000000 -0.000000 -0.003806  0.000000 -0.000000
                                -0.000000 -0.000000  0.000000 -0.000000 -0.000016 -0.000000 -0.000000  0.000000  0.000000 -0.000000
                                 0.000000  0.000187  0.000000  0.000000 -0.000000 -0.000000

 HOMO      6.1    -0.264328 =      -7.1927eV
 LUMO      7.1    -0.116238 =      -3.1630eV
 LUMO-HOMO         0.148090 =       4.0297eV


 **********************************************************************************************************************************
 DATASETS  * FILE   NREC   LENGTH (MB)   RECORD NAMES
              1      19       11.77       500      610      700      900      950      970     1000      129      960     1100   
                                          VAR    BASINP    GEOM    SYMINP    ZMAT    AOBASIS   BASIS     P2S    ABASIS      S 
                                         1400     1410     1200     1210     1080     1600     1650     1300     1700   
                                           T        V       H0       H01     AOSYM     SMH    MOLCAS    ERIS     OPER   

              2       4        0.47       700     1000      520     2100   
                                         GEOM     BASIS   MCVARS     RHF  

 PROGRAMS   *        TOTAL        HF       INT
 CPU TIMES  *         1.32      0.59      0.64
 REAL TIME  *         2.17 SEC
 DISK USED  *        27.48 MB      
 **********************************************************************************************************************************

1PROGRAM * MULTI (Direct Multiconfiguration SCF)       Authors: P.J. Knowles, H.-J. Werner (1984)     S.T. Elbert (1988)


 Number of closed-shell orbitals:   3 (   3 )
 Number of active  orbitals:        4 (   4 )
 Number of external orbitals:      69 (  69 )

 State symmetry 1

 Number of electrons:     6    Spin symmetry=Singlet   Space symmetry=1
 Number of states:        4
 Number of CSFs:         10   (16 determinants, 16 intermediate states)

 Iteration controls:
             1  2  3  4  5  6  7  8  9 10 11 12 13 14 15 16 17 18 19 20 21 22 23 24 25 26 27 28 29 30 31 32 33 34 35 36 37 38 39
 DIAGCI      T  T  T  T  T  T  T  T  T  T  T  T  T  T  T  T  T  T  T  T  T  T  T  T  T  T  T  T  T  T  T  T  T  T  T  T  T  T  T
 WERNER      T  T  T  T  T  T  T  T  T  T  T  T  T  T  T  T  T  T  T  T  T  T  T  T  T  T  T  T  T  T  T  T  T  T  T  T  T  T  T
 INTERNAL    F  T  T  T  T  T  T  T  T  T  T  T  T  T  T  T  T  T  T  T  T  T  T  T  T  T  T  T  T  T  T  T  T  T  T  T  T  T  T

 Molecular orbitals read from record     2100.2  Type=RHF/CANONICAL (state 1.1)
 *** IN SYMMETRY 1 ORBITAL  4 SYMMETRY CONTAMINATION OF 0.214D+00 HAS BEEN REMOVED
 *** IN SYMMETRY 1 ORBITAL  5 SYMMETRY CONTAMINATION OF 0.214D+00 HAS BEEN REMOVED

 EXTRA SYMMETRY OF MOS IN SYMMETRY 1:   1 1 1 3 2 1 1 2 3 1   1 3 2 1 4 5 2 3 1 3   2 1 3 2 1 6 7 5 4 3   2 1 1 4 5 3 2 1 1 3
                                        2 5 4 3 2 1 1 1 3 2   1 5 4 1 3 2 5 4 6 7   3 2 1 1 2 3 4 5 6 7   3 2 1 4 5 1

 Wavefunction dump at record             2140.3

 Convergence thresholds  0.10E-01 (gradient)  0.10E-06 (energy)  0.10E-02 (step length)

 Weight factors for state symmetry  1:    0.25000   0.25000   0.25000   0.25000

 Number of orbital rotations:      495   (    12 Core/Active    207 Core/Virtual   0 Active/Active    276 Active/Virtual)
 Total number of variables:        559


 ITER. MIC  NCI  NEG     ENERGY(VAR)     ENERGY(PROJ)   ENERGY CHANGE     GRAD(0)  GRAD(ORB)   GRAD(CI)     STEP       TIME

   1   90    7    0    -106.71691198    -106.82106531   -0.10415333    0.55360587 0.00019234 0.00000000  0.41D+00      0.24
   2   19    8    0    -106.78045957    -106.79017578   -0.00971621    0.24137340 0.00000000 0.00000000  0.51D-01      0.41
   3   25    9    0    -106.79030629    -106.79031064   -0.00000436    0.00528244 0.00000000 0.00000000  0.14D-02      0.58
   4   26    6    0    -106.79031065    -106.79031065   -0.00000000    0.00000265 0.00000000 0.00000000  0.69D-06      0.71

 ** WVFN ****  CONVERGENCE REACHED, FINAL GRADIENT:  0.19D-07



 Results for state 1.1
 =====================

 !MCSCF STATE 1.1 Energy             -106.822893093538
 Nuclear energy                         2.24721369
 Kinetic energy                       105.99298591
 One electron energy                 -152.68919365
 Two electron energy                   43.61908686
 Virial ratio                           2.00782983

 !MCSCF STATE 1.1 Dipole moment        -0.00000000    -0.00000000     0.00665907
 Dipole moment /Debye                  -0.00000000    -0.00000000     0.01692455

 Results for state 2.1
 =====================

 !MCSCF STATE 2.1 Energy             -106.822858147947
 Nuclear energy                         2.24721369
 Kinetic energy                       105.99158350
 One electron energy                 -152.68868230
 Two electron energy                   43.61861046
 Virial ratio                           2.00784284

 !MCSCF STATE 2.1 Dipole moment        -0.00000000    -0.00000000     0.01162852
 Dipole moment /Debye                  -0.00000000    -0.00000000     0.02955481

 Results for state 3.1
 =====================

 !MCSCF STATE 3.1 Energy             -106.822858147947
 Nuclear energy                         2.24721369
 Kinetic energy                       105.99158350
 One electron energy                 -152.68868230
 Two electron energy                   43.61861046
 Virial ratio                           2.00784284

 !MCSCF STATE 3.1 Dipole moment         0.00000000     0.00000000     0.01162852
 Dipole moment /Debye                   0.00000000     0.00000000     0.02955481

 Results for state 4.1
 =====================

 !MCSCF STATE 4.1 Energy             -106.692633190924
 Nuclear energy                         2.24721369
 Kinetic energy                       108.97551057
 One electron energy                 -159.32331629
 Two electron energy                   50.38346941
 Virial ratio                           1.97905146

 !MCSCF STATE 4.1 Dipole moment        -0.00000000    -0.00000000   -12.00348983
 Dipole moment /Debye                  -0.00000000    -0.00000000   -30.50782969

 State-averaged charge density matrix saved on record  2140.3 (density set 1)

 !MCSCF trans         <2.1|DMX|1.1>    -0.000899354731 au =    -0.002285781997 Debye
 !MCSCF trans         <4.1|DMX|2.1>    -0.006462955605 au =    -0.016426118706 Debye

 !MCSCF trans         <3.1|DMY|1.1>    -0.000899354731 au =    -0.002285781997 Debye
 !MCSCF trans         <4.1|DMY|3.1>    -0.006462955605 au =    -0.016426118706 Debye

 !MCSCF expec         <1.1|DMZ|1.1>     0.006659067241 au =     0.016924552118 Debye
 !MCSCF expec         <2.1|DMZ|2.1>     0.011628517950 au =     0.029554808652 Debye
 !MCSCF expec         <3.1|DMZ|3.1>     0.011628517950 au =     0.029554808652 Debye
 !MCSCF trans         <4.1|DMZ|1.1>     0.187989681671 au =     0.477790815143 Debye
 !MCSCF expec         <4.1|DMZ|4.1>   -12.003489831599 au =   -30.507829686196 Debye


 NATURAL ORBITALS (state averaged)
 =================================

   Orb     Occ        Energy       Coefficients

                                   1 1s      1 1s      1 1s      1 1s      1 2px     1 2py     1 2pz     1 2px     1 2py     1 2pz  
                                   1 2px     1 2py     1 2pz     1 3d0     1 3d2-    1 3d1+    1 3d2+    1 3d1-    1 3d0     1 3d2- 
                                   1 3d1+    1 3d2+    1 3d1-    1 4f1+    1 4f1-    1 4f0     1 4f3+    1 4f2-    1 4f3-    1 4f2+ 
                                   2 1s      2 1s      2 1s      2 1s      2 1s      2 2px     2 2py     2 2pz     2 2px     2 2py  
                                   2 2pz     2 2px     2 2py     2 2pz     2 2px     2 2py     2 2pz     2 3d0     2 3d2-    2 3d1+ 
                                   2 3d2+    2 3d1-    2 3d0     2 3d2-    2 3d1+    2 3d2+    2 3d1-    2 3d0     2 3d2-    2 3d1+ 
                                   2 3d2+    2 3d1-    2 4f1+    2 4f1-    2 4f0     2 4f3+    2 4f2-    2 4f3-    2 4f2+    2 4f1+ 
                                   2 4f1-    2 4f0     2 4f3+    2 4f2-    2 4f3-    2 4f2+ 

   1.1  2.00000   -26.266467    -0.000032 -0.000148  0.000035  0.000130  0.000000  0.000000  0.000074  0.000000  0.000000 -0.000109
                                 0.000000  0.000000  0.000070 -0.000017  0.000000  0.000000  0.000000  0.000000  0.000027  0.000000
                                 0.000000  0.000000  0.000000  0.000000  0.000000  0.000005  0.000000  0.000000  0.000000  0.000000
                                 0.999632 -0.001070  0.000324  0.001493 -0.000812  0.000000  0.000000 -0.000022  0.000000  0.000000
                                 0.000025  0.000000  0.000000 -0.000012  0.000000  0.000000  0.000033 -0.000001  0.000000  0.000000
                                 0.000000  0.000000  0.000002  0.000000  0.000000  0.000000  0.000000 -0.000003  0.000000  0.000000
                                 0.000000  0.000000  0.000000  0.000000 -0.000000  0.000000  0.000000  0.000000  0.000000  0.000000
                                 0.000000  0.000000  0.000000  0.000000  0.000000  0.000000

   2.1  2.00000    -2.535488     1.000684  0.002047 -0.001545 -0.001224  0.000000  0.000000 -0.001085  0.000000  0.000000  0.000764
                                 0.000000  0.000000  0.000289 -0.000002  0.000000  0.000000  0.000000  0.000000 -0.000012  0.000000
                                 0.000000  0.000000  0.000000  0.000000  0.000000 -0.000004  0.000000  0.000000  0.000000  0.000000
                                 0.000019  0.000056 -0.000013 -0.000110  0.000114  0.000000  0.000000  0.000006  0.000000  0.000000
                                -0.000018  0.000000  0.000000  0.000045  0.000000  0.000000 -0.000105  0.000001  0.000000  0.000000
                                 0.000000  0.000000 -0.000005  0.000000  0.000000  0.000000  0.000000  0.000012  0.000000  0.000000
                                 0.000000  0.000000  0.000000  0.000000  0.000000  0.000000  0.000000  0.000000  0.000000  0.000000
                                 0.000000 -0.000000  0.000000  0.000000  0.000000  0.000000

   3.1  2.00000    -1.465508    -0.000033 -0.000179  0.000014  0.000176  0.000000  0.000000  0.000296  0.000000  0.000000 -0.000398
                                 0.000000  0.000000  0.000166 -0.000006  0.000000  0.000000  0.000000  0.000000  0.000007  0.000000
                                 0.000000  0.000000  0.000000  0.000000  0.000000 -0.000008  0.000000  0.000000  0.000000  0.000000
                                -0.001040  0.990270 -0.000670  0.003230  0.012608  0.000000  0.000000  0.000675  0.000000  0.000000
                                -0.000027  0.000000  0.000000 -0.000354  0.000000  0.000000  0.000044  0.000001  0.000000  0.000000
                                 0.000000  0.000000  0.000008  0.000000  0.000000  0.000000  0.000000  0.000049  0.000000  0.000000
                                 0.000000  0.000000  0.000000  0.000000  0.000001  0.000000  0.000000  0.000000  0.000000  0.000000
                                 0.000000 -0.000004  0.000000  0.000000  0.000000  0.000000

   4.1  1.75000    -0.505488    -0.000055  0.000658 -0.000248  0.000858  0.000000  0.000000 -0.000698  0.000000  0.000000  0.000615
                                 0.000000  0.000000  0.000534 -0.000226  0.000000  0.000000  0.000000  0.000000  0.000485  0.000000
                                 0.000000  0.000000  0.000000  0.000000  0.000000  0.000167  0.000000  0.000000  0.000000  0.000000
                                 0.000067  0.000475  0.000041  0.000308 -0.002048  0.000000  0.000000  0.971309  0.000000  0.000000
                                 0.002654  0.000000  0.000000  0.017331  0.000000  0.000000  0.039329 -0.000059  0.000000  0.000000
                                 0.000000  0.000000 -0.000050  0.000000  0.000000  0.000000  0.000000 -0.000882  0.000000  0.000000
                                 0.000000  0.000000  0.000000  0.000000 -0.000006  0.000000  0.000000  0.000000  0.000000  0.000000
                                 0.000000  0.000047  0.000000  0.000000  0.000000  0.000000

   5.1  1.75000    -0.505410     0.000000  0.000000  0.000000  0.000000  0.000000 -0.000094  0.000000  0.000000  0.000191  0.000000
                                 0.000000 -0.000204  0.000000  0.000000  0.000000  0.000000  0.000000  0.000059  0.000000  0.000000
                                 0.000000  0.000000 -0.000113  0.000000 -0.000031  0.000000  0.000000  0.000000  0.000000  0.000000
                                 0.000000  0.000000  0.000000  0.000000  0.000000  0.000000  0.971520  0.000000  0.000000  0.002641
                                 0.000000  0.000000  0.017278  0.000000  0.000000  0.038831  0.000000  0.000000  0.000000  0.000000
                                 0.000000 -0.000049  0.000000  0.000000  0.000000  0.000000 -0.000052  0.000000  0.000000  0.000000
                                 0.000000 -0.000717  0.000000 -0.000005  0.000000  0.000000  0.000000  0.000000  0.000000  0.000000
                                 0.000037  0.000000  0.000000  0.000000  0.000000  0.000000

   6.1  1.75000    -0.505410     0.000000  0.000000  0.000000  0.000000 -0.000094  0.000000  0.000000  0.000191  0.000000  0.000000
                                -0.000204  0.000000  0.000000  0.000000  0.000000  0.000059  0.000000  0.000000  0.000000  0.000000
                                -0.000113  0.000000  0.000000 -0.000031  0.000000  0.000000  0.000000  0.000000  0.000000  0.000000
                                 0.000000  0.000000  0.000000  0.000000  0.000000  0.971520  0.000000  0.000000  0.002641  0.000000
                                 0.000000  0.017278  0.000000  0.000000  0.038831  0.000000  0.000000  0.000000  0.000000 -0.000049
                                 0.000000  0.000000  0.000000  0.000000 -0.000052  0.000000  0.000000  0.000000  0.000000 -0.000717
                                 0.000000  0.000000 -0.000005  0.000000  0.000000  0.000000  0.000000  0.000000  0.000000  0.000037
                                 0.000000  0.000000  0.000000  0.000000  0.000000  0.000000

   7.1  0.75000    -0.087655     0.000567  1.000372 -0.000078 -0.000187  0.000000  0.000000 -0.000151  0.000000  0.000000 -0.000042
                                 0.000000  0.000000 -0.000299  0.000023  0.000000  0.000000  0.000000  0.000000 -0.000124  0.000000
                                 0.000000  0.000000  0.000000  0.000000  0.000000 -0.000021  0.000000  0.000000  0.000000  0.000000
                                -0.000039 -0.002202 -0.000034 -0.000846 -0.000912  0.000000  0.000000  0.003021  0.000000  0.000000
                                 0.000048  0.000000  0.000000  0.000429  0.000000  0.000000  0.001895  0.000003  0.000000  0.000000
                                 0.000000  0.000000  0.000080  0.000000  0.000000  0.000000  0.000000 -0.000077  0.000000  0.000000
                                 0.000000  0.000000  0.000000  0.000000 -0.000002  0.000000  0.000000  0.000000  0.000000  0.000000
                                 0.000000 -0.000002  0.000000  0.000000  0.000000  0.000000


 EXTRA SYMMETRY OF MOS IN SYMMETRY 1:   1 1 1 1 3 2 1 2 3 1   3 2 1 1 1 4 5 3 2 3   2 1 1 3 2 1 7 6 4 5   3 2 1 4 5 2 3 1 3 2
                                        4 5 1 3 2 1 1 1 3 2   5 4 1 1 3 2 4 5 6 7   2 3 1 1 2 3 4 5 6 7   4 5 2 3 1 1

 Natural orbital dump (state averaged) at molpro section  2140.3    (Orbital set 2)


 CI vector
 =========

 2220     -0.0158535   0.0000000  -0.0000000   0.9998743
 2b2a     -0.0000000   0.0000000   0.7071068  -0.0000000
 2a2b      0.0000000  -0.0000000  -0.7071068   0.0000000
 22ba      0.0000000  -0.7071068   0.0000000   0.0000000
 22ab      0.0000000   0.7071068   0.0000000   0.0000000
 b22a     -0.7070179  -0.0000000  -0.0000000  -0.0112101
 a22b      0.7070179   0.0000000   0.0000000   0.0112101

 TOTAL ENERGIES                      -106.82289309  -106.82285815  -106.82285815
                                     -106.69263319



 **********************************************************************************************************************************
 DATASETS  * FILE   NREC   LENGTH (MB)   RECORD NAMES
              1      20       13.81       500      610      700      900      950      970     1000      129      960     1100   
                                          VAR    BASINP    GEOM    SYMINP    ZMAT    AOBASIS   BASIS     P2S    ABASIS      S 
                                         1400     1410     1200     1210     1080     1600     1650     1300     1700     1380   
                                           T        V       H0       H01     AOSYM     SMH    MOLCAS    ERIS     OPER     JKOP   

              2       4        0.47       700     1000      520     2100   
                                         GEOM     BASIS   MCVARS     RHF  

              3       2        0.24      1000     2140   
                                         BASIS    MCSCF   

 PROGRAMS   *        TOTAL     MULTI        HF       INT
 CPU TIMES  *         2.19      0.87      0.59      0.64
 REAL TIME  *         3.14 SEC
 DISK USED  *        27.48 MB      
 **********************************************************************************************************************************

 Dump information in style MOLDEN to lif_ac_m.mld                                                                    

 Molecular orbitals read from record     2140.3  Type=MCSCF/NATURAL  
 Occupation numbers read from record     2140.3  Type=MCSCF/NATURAL  
 Orbital energies read from record       2140.3  Type=MCSCF/NATURAL  
 Redundancy group numbers read from rec  2140.3  Type=MCSCF/NATURAL  

 DUMP ORBITAL  1.1 AS ORBITAL    1  occ=    2.0000  eig=  -26.2665  GROUP= 102
 DUMP ORBITAL  2.1 AS ORBITAL    2  occ=    2.0000  eig=   -2.5355  GROUP= 102
 DUMP ORBITAL  3.1 AS ORBITAL    3  occ=    2.0000  eig=   -1.4655  GROUP= 102
 DUMP ORBITAL  4.1 AS ORBITAL    4  occ=    1.7500  eig=   -0.5055  GROUP= 303
 DUMP ORBITAL  5.1 AS ORBITAL    5  occ=    1.7500  eig=   -0.5054  GROUP= 203
 DUMP ORBITAL  6.1 AS ORBITAL    6  occ=    1.7500  eig=   -0.5054  GROUP= 103
 DUMP ORBITAL  7.1 AS ORBITAL    7  occ=    0.7500  eig=   -0.0877  GROUP= 103

 Total charge:      12.000000

 **********************************************************************************************************************************

        MULTI           HF-SCF  
   -106.69263319   -106.77063910
 **********************************************************************************************************************************
 Variable memory released
