[Molden Format]
[Molpro variables]
_NUMVAR=  891.0000000000000    
_AVOGAD= 0.6022136736000000E+24
_BOLTZ= 0.1380658000000000E-22
_CLIGHT=  29979245800.00000    
_EV= 0.3674932379085202E-01
_ENULL= 0.8854187817000000E-11
_KJOULE= 0.3808798324128737E-03
_KJOULE/MOL= 0.3808798324128737E-03
_CM= 0.4556335267302901E-05
_CM-1= 0.4556335267302901E-05
_DEB2SI= 0.3335641000000000E-29
_AMU2AU=  1822.888390000000    
_KCAL= 0.1593601117815568E-02
_KCAL/MOL= 0.1593601117815568E-02
_KELVIN= 0.3166811411060229E-05
_JOULE= 0.4359748200000000E-17
_HERTZ= 0.1519829846004524E-15
_HZ= 0.1519829846004524E-15
_JPCAL=  4.184000000000000    
_PLANCK= 0.6626075540000000E-33
_TOA= 0.5291772109200000    
_TOANG= 0.5291772109200000    
_TORAD= 0.1745329251994330E-01
_TOCM=  219474.6306700000    
_TODEBYE=  2.541580000000000    
_TOE= 0.4803242000000000E-09
_TOEV=  27.21138505000000    
_TOHERTZ=  6579683920729000.    
_TOHZ=  6579683920729000.    
_TOK=  315775.0400000000    
_TOKCAL=  627.5096000000000    
_TOKELVIN=  315775.0400000000    
_TOKJ=  2625.500000000000    
_TOKJOULE=  2625.500000000000    
_TOKG= 0.1660565586000000E-26
_ANG=  1.889726124565062    
_ANGSTROM=  1.889726124565062    
_RPAREF=  0.000000000000000    
_RPADISS=  0.000000000000000    
_IGNORE_UNDEF=  2.000000000000000    
_STRICTCHECK=  0.000000000000000    
_SEW_ONEEL=  0.000000000000000    
_CPPDONE=FALSE
_DKROLL_DONE=  0.000000000000000    
_FOCKDONE=TRUE
_GRADONE=FALSE
_HESSDONE=FALSE
_INTDONE=TRUE
_SCFDONE=TRUE
_MODUL_BLOCK=FALSE
_MODUL_CUDA=FALSE
_MODUL_SLATER=FALSE
_MODUL_MRCC=FALSE
_MODUL_NBO6=FALSE
_MODUL_NECI=TRUE
_MODUL_AIMS=TRUE
_MRCC_EXEC=
_FITC_AO_SAVED=FALSE
_FITC_MO_SAVED=FALSE
_SHARED_FS=TRUE
_LSTYP=SEWARD
_INTYP=INTS
_GEOMTYP=ZMAT
_GRADTYP=ALASKA
_DIRECT=FALSE
_DKHO= -1.000000000000000    
_SYNCM=  0.000000000000000    
_BASIS=6-31G
_ZORIENT=  1.000000000000000    
_NELEC=  14.00000000000000    
!SPIN=  0.000000000000000    
_QSDSTEP=  0.000000000000000    
_QSDIRC=  0.000000000000000    
_PROGRAM=HF-SCF
_CPUSTEP= 0.4999999999999999E-01
_SYSSTEP=  0.000000000000000    
_WALLSTEP= 0.6000000000000000E-01
!DFSCF=  0.000000000000000    
!SCSGRD=  0.000000000000000    
_BASINP=  610.0000000000000    
_CARTESIAN=TRUE
_CPUTOT= 0.2900000000000000    
_CPUSORT= 0.1999999999999999E-01
_SYSSORT=  0.000000000000000    
_WALLSORT= 0.3000000119209290E-01
_DFTEXFAC=  1.000000000000000    
_DMX=  0.000000000000000    
_DMY=  0.000000000000000    
_DMZ= -1.203069912384912    
_DMX_SCF=  0.000000000000000    
_DMY_SCF=  0.000000000000000    
_DMZ_SCF= -1.203069912384912    
_EHOMO=-0.4540853063024684    
_ELUMO=-0.9444382738550233E-02
_EIGS= -20.61669417747754    
_ENERGY= -112.3508245424300    
_ENERGY_METHOD=HF
_ENERGY_BASIS=6-31G
_GEOMETRY_METHOD=
_GEOMETRY_BASIS=
_ENUC=  13.71428571428571    
_GRADEXFAC=  9999.000000000000    
_GRADMETHOD=  1.000000000000000    
_NMRMETHOD=  0.000000000000000    
_NMRMAGNET=  0.000000000000000    
!GRID_FREEZE= -1.000000000000000    
_ITERATIONS=  14.00000000000000    
_LASTNELEC=  14.00000000000000    
_LASTSPIN=  0.000000000000000    
_LASTSYM=  1.000000000000000    
_MPP_PROG=  0.000000000000000    
_RS2PHASE=  0.000000000000000    
_NPROC_MPP=  1.000000000000000    
_NPROC_MPPX=  1.000000000000000    
_NPROC_SMP=  1.000000000000000    
_NUMSTEP=  0.000000000000000    
_ORBITAL=  2100.200000000000    
_PI=  3.141592653589793    
_SEIG_MIN= 0.8178441621774364E-01
_SEWPROP=TRUE
_STATUS=  1.000000000000000    
_SYSTOT= 0.1400000000000000    
_VERSION=  2015001.000000000    
_WALLTOT= 0.4600000000000000    
_DATE=08-Mar-22
_LASTORB=RHF
_MACHINE= 64 bit serial version
_OUTPUT=/home/jeremy/newCalcsForXray/CO/3morepoints/3.5/CO.xml
_PGROUP=C2v
_TIME=16:23:27
_LIBMOL=/shared/apps/quantum/molpro2015.1/lib/
_VIGRDC=  0.000000000000000    
!VIBCNT=  0.000000000000000    
!RGHFCNT=  0.000000000000000    
!SURFREC=  0.000000000000000    
!ROTREC=  0.000000000000000    
!POLYREC=  0.000000000000000    
!DIPREC=  0.000000000000000    
!DIP4DREC=  0.000000000000000    
!DIPROT=  0.000000000000000    
!DIP4DROT=  0.000000000000000    
!PTREC=  0.000000000000000    
!PT4DREC=  0.000000000000000    
!VSCFREC=  0.000000000000000    
!VCIREC=  0.000000000000000    
!PVCIREC=  0.000000000000000    
!VMP2REC=  0.000000000000000    
!VMCSCFREC=  0.000000000000000    
!VMRCIREC=  0.000000000000000    
!VIBSTATEREC=  0.000000000000000    
!VIBSTATECNT=  0.000000000000000    
!VIBINFO=  0.000000000000000    
!GAREC=  0.000000000000000    
!SCFORB=  21002.00000000000    
!NEWMOL= -1.000000000000000    
!NEWSYM= -1.000000000000000    
_SLFILES=slscratch
_NGSSTO=  9.000000000000000    
_SIN=SIN
_COS=COS
_TAN=TAN
_ACOS=ACOS
_ASIN=ASIN
_ATAN=ATAN
_COSH=COSH
_SINH=SINH
_TANH=TANH
_ABS=ABS
_MOD=MOD
_ERF=ERF
_REFC=REFC
_ERFC=ERFC
_HYPOT=HYPOT
_J0=J0
_J1=J1
_JN=JN
_GAMMA=GAMMA
_LGAMMA=LGAMMA
_Y0=Y0
_Y1=Y1
_YN=YN
_EXP=EXP
_LOG=LOG
_LOG10=LOG10
_SQRT=SQRT
_INT=INT
_NINT=NINT
_MAX=MAX
_MIN=MIN
_COSMO=  0.000000000000000    
_COSMOIT=  0.000000000000000    
_COSMOES=  0.000000000000000    
_COSMOEDS=  0.000000000000000    
_COSMOEC=  0.000000000000000    
_COSMOEDCORR=  0.000000000000000    
_FEPSI=  1.000000000000000    
_SL_IsMM=  0.000000000000000    
_SL_NSYM=  4.000000000000000    
_SL_System_BitSw=  0.000000000000000    
_SL_Unique_atoms=  0.000000000000000    
_SL_GRAD=  0.000000000000000    
_SL_MAXUPD_Hess=  5.000000000000000    
_SL_N_PRINT_COD=  5.000000000000000    
_SL_PRINT_CODES=  0.000000000000000    
_SL_BasType=  0.000000000000000    
_SL_Energy_Pred=  0.000000000000000    
_SL_New_Coords=  0.000000000000000    
_SL_Total_Nuclea=  0.000000000000000    
_SL_Highest_Mltp=  0.000000000000000    
_SL_Ref_Geom=  0.000000000000000    
_SL_Symmetry_ope=  1.000000000000000    
_SL_agrad=  0.000000000000000    
_SL_GrdMax=  0.000000000000000    
_SL_GrdNorm=  0.000000000000000    
_SL_GrdRMS=  0.000000000000000    
_SL_Hss_Q=  0.000000000000000    
_SL_Hss_X=  0.000000000000000    
_SL_BMxOld=  0.000000000000000    
_SL_KtB=  0.000000000000000    
_SL_TROld=  0.000000000000000    
_SL_No_of_Intern=  0.000000000000000    
_SL_Hess=  0.000000000000000    
_SL_K=  0.000000000000000    
!LATTICE= -1.000000000000000    
!NEWLATTICE=  0.000000000000000    
!LATGRAD_VAR=FALSE
!SEW_LATTICE=  1.000000000000000    
!LOCAL=  0.000000000000000    
!SAVEDOM= -1.000000000000000    
!RESTDOM= -1.000000000000000    
!SAVEDOM_HF= -1.000000000000000    
!RESTDOM_HF= -1.000000000000000    
!HESSREC=  0.000000000000000    
!FREQREC=  0.000000000000000    
!NMODREC=  0.000000000000000    
!GTASKS=  0.000000000000000    
!HTASKS=  0.000000000000000    
!SAVEDOM_EOM= -1.000000000000000    
!RESTDOM_EOM= -1.000000000000000    
!GRADSTATE= -1.000000000000000    
!THRCHG= 0.1000000000000000    
!DEBUG= -1.000000000000000    
!CFIT_CPHF=  0.000000000000000    
!RDOMAUX_CPHF=  3.000000000000000    
!THRAO_CPHF= 0.1000000000000000E-09
!THRMO_CPHF= 0.1000000000000000E-08
!THROV_CPHF= 0.1000000000000000E-11
!THRSW_CPHF= 0.1000000000000000E-09
!THRPROD_CPHF= 0.1000000000000000E-08
!THRAOPR_CPHF= 0.1000000000000000E-11
!CFIT_SCFGRD=  0.000000000000000    
!RDOMAUX_SCFGRD=  5.000000000000000    
!THRAO_SCFGRD= 0.1000000000000000E-09
!THRMO_SCFGRD= 0.1000000000000000E-08
!THROV_SCFGRD= 0.1000000000000000E-11
!THRSW_SCFGRD= 0.1000000000000000E-09
!THRPROD_SCFGRD= 0.1000000000000000E-08
!THRAOPR_SCFGRD= 0.1000000000000000E-11
!LOCFIT_SCF=  0.000000000000000    
!LOCFIT_MP2= -1.000000000000000    
_RIDOM=  0.000000000000000    
!CC2_METHOD=  0.000000000000000    
_BASIS2006=FALSE
_SVDDEL= -1.000000000000000    
_SVDDELA= -1.000000000000000    
_SVDDELP= -1.000000000000000    
_SVDDELF= -1.000000000000000    
_SVDDELS= -1.000000000000000    
_SVDDEL_ABS= -1.000000000000000    
_SVDDELA_ABS= -1.000000000000000    
_SVDDELP_ABS= -1.000000000000000    
_SVDDELF_ABS= -1.000000000000000    
_SVDDELS_ABS= -1.000000000000000    
_MAXBASIS=  0.000000000000000    
!OPT_CONICAL=  0.000000000000000    
!CLEARSP_JGRID=  0.000000000000000    
_GRDHYBR=  0.000000000000000    
_STATEGRAD=  1.000000000000000    
_4EXT_NDISKS=  1.000000000000000    
!ZMP=  0.000000000000000    
_MAXIT_ZMP=  500.0000000000000    
_MAXDIS_ZMP=  100.0000000000000    
_ACCU_ZMP=  14.00000000000000    
_SHIFTA_ZMP= -100.0000000000000    
!EMBEDFLAG=  1.000000000000000    
!EMBED=FALSE
!EMBED_F12=FALSE
!EMBEDNUC=  0.000000000000000    
_EMBEDENERGY=  0.000000000000000    
_KSPACETIME=  0.000000000000000    
_RSPACETIME=  0.000000000000000    
!EMBED_DFC=FALSE
!NUM_VOIDS=  0.000000000000000    
_IBODY=  0.000000000000000    
_EMBE_TOTAL=  0.000000000000000    
_EMBE_HF=  0.000000000000000    
_EMBE_CORR=  0.000000000000000    
!EMBED_PROJ=FALSE
!EMBED_TRUNC=  0.000000000000000    
!EMB_PROJ_ZMU=  1000000.000000000    
!CORRECTION=  0.000000000000000    
!CORRECTION_HF=  0.000000000000000    
!EMBED_ENERGY=  0.000000000000000    
!EMBED_NAXC=FALSE
!EMBED_AORB=  0.000000000000000    
!EMBED_NACORR=  0.000000000000000    
!EMBED_MP2=FALSE
!EMBED_TRUNC_PERTURBATION=FALSE
!EMBED_FROZEN=  0.000000000000000    
_CHANGE_BASIS=FALSE
_RESTORE_BASIS=FALSE
_FIX_EMBED_GUESS=FALSE
!EDFT=  0.000000000000000    
_IFASTLATGRAD=  0.000000000000000    
_SINDEX=  0.000000000000000    
_AVDOM_OSV=  0.000000000000000    
_AVDOM_PNO=  0.000000000000000    
_AVDOM_PAO=  0.000000000000000    
_AVDOM_LMO=  0.000000000000000    
_CC2OSV_FLAG=  0.000000000000000    
_TMADC2_FLAG=FALSE
_PROPADC2_FLAG=FALSE
_LEN_VirQ=  0.000000000000000    
_GRDCC2LR_FLAG=FALSE
_GRDADC2_FLAG=FALSE
R1=  3.500000000000000    
GX1=  0.000000000000000    
GY1=  0.000000000000000    
GZ1= -1.999182446519864    
GX2=  0.000000000000000    
GY2=  0.000000000000000    
GZ2=  1.500817553480136    
[Atoms] Angs
C     1    6         0.0000000000        0.0000000000       -1.0579217912
O     2    8         0.0000000000        0.0000000000        0.7941984471
[GTO]
   1 0
 s    6  1.00
  0.3047524900D+04  0.1834737091D-02
  0.4573695200D+03  0.1403732293D-01
  0.1039486800D+03  0.6884262165D-01
  0.2921015500D+02  0.2321844388D+00
  0.9286663000D+01  0.4679413476D+00
  0.3163927000D+01  0.3623119882D+00
 s    3  1.00
  0.7868272300D+01 -0.1193324245D+00
  0.1881288500D+01 -0.1608541561D+00
  0.5442492600D+00  0.1143456443D+01
 s    1  1.00
  0.1687144800D+00  0.1000000000D+01
 p    3  1.00
  0.7868272300D+01  0.6899906693D-01
  0.1881288500D+01  0.3164239597D+00
  0.5442492600D+00  0.7443082892D+00
 p    1  1.00
  0.1687144800D+00  0.1000000000D+01
  
   2 0
 s    6  1.00
  0.5484671700D+04  0.1831074396D-02
  0.8252349500D+03  0.1395017197D-01
  0.1880469600D+03  0.6844507786D-01
  0.5296450000D+02  0.2327143395D+00
  0.1689757000D+02  0.4701928990D+00
  0.5799635300D+01  0.3585208493D+00
 s    3  1.00
  0.1553961600D+02 -0.1107775519D+00
  0.3599933600D+01 -0.1480262626D+00
  0.1013761800D+01  0.1130767020D+01
 s    1  1.00
  0.2700058200D+00  0.1000000000D+01
 p    3  1.00
  0.1553961600D+02  0.7087426737D-01
  0.3599933600D+01  0.3397528370D+00
  0.1013761800D+01  0.7271585736D+00
 p    1  1.00
  0.2700058200D+00  0.1000000000D+01
 
 
[MO]
 Sym=      1.1
 Ene=     -20.6167
 Spin= Alpha
 Occup=    2.000000
1 -0.000072372942684
2 -0.000442924334008
3 0.001621872263202
4 0.0
5 0.0
6 0.000116946033358
7 0.0
8 0.0
9 0.001324019777866
10 0.99598758220128
11 0.020287875111190
12 -0.005653637838689
13 0.0
14 0.0
15 -0.001084187077901
16 0.0
17 0.0
18 0.001429950557117
 Sym=      2.1
 Ene=     -11.5119
 Spin= Alpha
 Occup=    2.000000
1 0.99678444532425
2 0.018955471808891
3 -0.005882264975801
4 0.0
5 0.0
6 0.001191342730719
7 0.0
8 0.0
9 -0.001398589701496
10 -0.000052629473865
11 -0.000302633620229
12 0.001496277248962
13 0.0
14 0.0
15 -0.000194955581604
16 0.0
17 0.0
18 -0.000654625148037
 Sym=      3.1
 Ene=      -1.2029
 Spin= Alpha
 Occup=    2.000000
1 -0.043450930018087
2 0.097858914675294
3 0.064581473002062
4 0.0
5 0.0
6 0.068904938550009
7 0.0
8 0.0
9 0.010718205505174
10 -0.22246341465031
11 0.50816909724278
12 0.52909485759133
13 0.0
14 0.0
15 -0.020515409302160
16 0.0
17 0.0
18 -0.033943649671207
 Sym=      4.1
 Ene=      -0.8024
 Spin= Alpha
 Occup=    2.000000
1 -0.22000751524420
2 0.50725251319135
3 0.52236781667339
4 0.0
5 0.0
6 -0.017471313146066
7 0.0
8 0.0
9 -0.023119210436064
10 0.059093541270296
11 -0.14809124640850
12 -0.17169587191172
13 0.0
14 0.0
15 -0.10140525918293
16 0.0
17 0.0
18 -0.066215391595897
 Sym=      1.2
 Ene=      -0.4708
 Spin= Alpha
 Occup=    2.000000
1 0.0
2 0.0
3 0.0
4 0.10534832032288
5 0.0
6 0.0
7 0.11483319372013
8 0.0
9 0.0
10 0.0
11 0.0
12 0.0
13 0.62971431717932
14 0.0
15 0.0
16 0.47170078445413
17 0.0
18 0.0
 Sym=      1.3
 Ene=      -0.4708
 Spin= Alpha
 Occup=    2.000000
1 0.0
2 0.0
3 0.0
4 0.0
5 0.10534832032288
6 0.0
7 0.0
8 0.11483319372013
9 0.0
10 0.0
11 0.0
12 0.0
13 0.0
14 0.62971431717932
15 0.0
16 0.0
17 0.47170078445413
18 0.0
 Sym=      5.1
 Ene=      -0.4541
 Spin= Alpha
 Occup=    2.000000
1 -0.023321280278488
2 0.050455491522007
3 0.10111849153609
4 0.0
5 0.0
6 -0.54918089275385
7 0.0
8 0.0
9 -0.34942794691862
10 -0.039210668405149
11 0.10314301359476
12 0.16872341223625
13 0.0
14 0.0
15 0.30150959723671
16 0.0
17 0.0
18 0.22871574154680
 Sym=      2.3
 Ene=      -0.0094
 Spin= Alpha
 Occup=    0.000000
1 0.0
2 0.0
3 0.0
4 0.0
5 -0.52601107696350
6 0.0
7 0.0
8 -0.59245698457728
9 0.0
10 0.0
11 0.0
12 0.0
13 0.0
14 0.18921614636381
15 0.0
16 0.0
17 0.17368736074051
18 0.0
 Sym=      2.2
 Ene=      -0.0094
 Spin= Alpha
 Occup=    0.000000
1 0.0
2 0.0
3 0.0
4 -0.52601107696350
5 0.0
6 0.0
7 -0.59245698457728
8 0.0
9 0.0
10 0.0
11 0.0
12 0.0
13 0.18921614636381
14 0.0
15 0.0
16 0.17368736074051
17 0.0
18 0.0
 Sym=      6.1
 Ene=       0.1501
 Spin= Alpha
 Occup=    0.000000
1 -0.064569687134778
2 0.16801199868625
3 0.28898862248962
4 0.0
5 0.0
6 0.39572472647446
7 0.0
8 0.0
9 0.51709690072257
10 0.039899820450500
11 -0.080726055232386
12 -0.28193928309237
13 0.0
14 0.0
15 0.51290573422956
16 0.0
17 0.0
18 0.65594339732804
 Sym=      7.1
 Ene=       0.6821
 Spin= Alpha
 Occup=    0.000000
1 -0.045164708967576
2 0.77100534236296
3 -0.62239572123449
4 0.0
5 0.0
6 -0.88560133955807
7 0.0
8 0.0
9 1.14965328823357
10 0.008402763188483
11 0.037814209775344
12 -0.34228972529201
13 0.0
14 0.0
15 -0.10593910176086
16 0.0
17 0.0
18 0.21964580204473
 Sym=      3.3
 Ene=       0.7120
 Spin= Alpha
 Occup=    0.000000
1 0.0
2 0.0
3 0.0
4 0.0
5 -1.09331195694514
6 0.0
7 0.0
8 1.07785076511059
9 0.0
10 0.0
11 0.0
12 0.0
13 0.0
14 -0.096193183856877
15 0.0
16 0.0
17 -0.054118821076887
18 0.0
 Sym=      3.2
 Ene=       0.7120
 Spin= Alpha
 Occup=    0.000000
1 0.0
2 0.0
3 0.0
4 -1.09331195694514
5 0.0
6 0.0
7 1.07785076511059
8 0.0
9 0.0
10 0.0
11 0.0
12 0.0
13 -0.096193183856877
14 0.0
15 0.0
16 -0.054118821076886
17 0.0
18 0.0
 Sym=      8.1
 Ene=       0.7796
 Spin= Alpha
 Occup=    0.000000
1 -0.032953166791606
2 1.51177117317794
3 -1.79002394839742
4 0.0
5 0.0
6 0.48491293177036
7 0.0
8 0.0
9 -0.95967152906290
10 -0.048388797502240
11 0.16332481381723
12 0.46139242774568
13 0.0
14 0.0
15 0.089147537756845
16 0.0
17 0.0
18 -0.52917908359970
 Sym=      4.2
 Ene=       1.2186
 Spin= Alpha
 Occup=    0.000000
1 0.0
2 0.0
3 0.0
4 0.10230932945830
5 0.0
6 0.0
7 -0.28094432926329
8 0.0
9 0.0
10 0.0
11 0.0
12 0.0
13 -0.95175552306038
14 0.0
15 0.0
16 1.09414608117567
17 0.0
18 0.0
 Sym=      4.3
 Ene=       1.2186
 Spin= Alpha
 Occup=    0.000000
1 0.0
2 0.0
3 0.0
4 0.0
5 0.10230932945830
6 0.0
7 0.0
8 -0.28094432926329
9 0.0
10 0.0
11 0.0
12 0.0
13 0.0
14 -0.95175552306038
15 0.0
16 0.0
17 1.09414608117567
18 0.0
 Sym=      9.1
 Ene=       1.2902
 Spin= Alpha
 Occup=    0.000000
1 -0.008132470362191
2 0.28150681276899
3 -0.18010030952315
4 0.0
5 0.0
6 0.22430897170543
7 0.0
8 0.0
9 -0.20358857053955
10 0.056396715266643
11 -0.79901901675263
12 0.87001855440648
13 0.0
14 0.0
15 -0.82084447861883
16 0.0
17 0.0
18 0.81195087773448
 Sym=     10.1
 Ene=       1.6054
 Spin= Alpha
 Occup=    0.000000
1 0.043020308755811
2 0.29418975829363
3 -0.91717069233429
4 0.0
5 0.0
6 -0.11737742554790
7 0.0
8 0.0
9 -0.65434197178910
10 0.069257751907482
11 -1.37933172821598
12 1.81311686007678
13 0.0
14 0.0
15 0.59540494292433
16 0.0
17 0.0
18 -1.07445826369936
