[Molden Format]
[Molpro variables]
_NUMVAR=  900.0000000000000    
_AVOGAD= 0.6022136736000000E+24
_BOLTZ= 0.1380658000000000E-22
_CLIGHT=  29979245800.00000    
_EV= 0.3674932379085202E-01
_ENULL= 0.8854187817000000E-11
_KJOULE= 0.3808798324128737E-03
_KJOULE/MOL= 0.3808798324128737E-03
_CM= 0.4556335267302901E-05
_CM-1= 0.4556335267302901E-05
_DEB2SI= 0.3335641000000000E-29
_AMU2AU=  1822.888390000000    
_KCAL= 0.1593601117815568E-02
_KCAL/MOL= 0.1593601117815568E-02
_KELVIN= 0.3166811411060229E-05
_JOULE= 0.4359748200000000E-17
_HERTZ= 0.1519829846004524E-15
_HZ= 0.1519829846004524E-15
_JPCAL=  4.184000000000000    
_PLANCK= 0.6626075540000000E-33
_TOA= 0.5291772109200000    
_TOANG= 0.5291772109200000    
_TORAD= 0.1745329251994330E-01
_TOCM=  219474.6306700000    
_TODEBYE=  2.541580000000000    
_TOE= 0.4803242000000000E-09
_TOEV=  27.21138505000000    
_TOHERTZ=  6579683920729000.    
_TOHZ=  6579683920729000.    
_TOK=  315775.0400000000    
_TOKCAL=  627.5096000000000    
_TOKELVIN=  315775.0400000000    
_TOKJ=  2625.500000000000    
_TOKJOULE=  2625.500000000000    
_TOKG= 0.1660565586000000E-26
_ANG=  1.889726124565062    
_ANGSTROM=  1.889726124565062    
_RPAREF=  0.000000000000000    
_RPADISS=  0.000000000000000    
_IGNORE_UNDEF=  2.000000000000000    
_STRICTCHECK=  0.000000000000000    
_SEW_ONEEL=  0.000000000000000    
_CPPDONE=FALSE
_DKROLL_DONE=  1021.000000000000    
_FOCKDONE=TRUE
_GRADONE=FALSE
_HESSDONE=FALSE
_INTDONE=TRUE
_SCFDONE=TRUE
_MODUL_BLOCK=TRUE
_MODUL_CUDA=FALSE
_MODUL_SLATER=FALSE
_MODUL_MRCC=FALSE
_MODUL_NBO6=FALSE
_MODUL_NECI=TRUE
_MODUL_AIMS=TRUE
_MRCC_EXEC=
_FITC_AO_SAVED=FALSE
_FITC_MO_SAVED=FALSE
_SHARED_FS=TRUE
_LSTYP=SEWARD
_INTYP=INTS
_GEOMTYP=ZMAT
_GRADTYP=ALASKA
_DIRECT=FALSE
_DKHO=  10.00000000000000    
_DKHP=  2.000000000000000    
_SYNCM=  0.000000000000000    
_BASIS=AVTZ
_ZUNIT=ANG
_ZORIENT=  0.000000000000000    
_NELEC=  58.00000000000000    
!SPIN=  0.000000000000000    
_QSDSTEP=  0.000000000000000    
_QSDIRC=  0.000000000000000    
_PROGRAM=HF-SCF
_CPUSTEP=  24.10000000000000    
_SYSSTEP=  2.760000000000001    
_WALLSTEP=  26.93000000000000    
!DFSCF=  0.000000000000000    
!SCSGRD=  0.000000000000000    
_BASINP=  610.0000000000000    
_CPUTOT=  41.79000000000000    
_CPUSORT=  5.690000000000001    
_SYSSORT=  3.600000000000000    
_WALLSORT=  9.320000000298023    
_DFTEXFAC=  1.000000000000000    
_DMX=-0.4109110422261257E-04
_DMY=-0.6719408097424426E-11
_DMZ= 0.4850709837820615    
_DMX_SCF=-0.4109110422261257E-04
_DMY_SCF=-0.6719408097424426E-11
_DMZ_SCF= 0.4850709837820615    
_EHOMO=-0.4529768379721991    
_ELUMO= 0.3290069938501357E-01
_EIGS= -105.2428041596163    
_ENERGY= -1420.620165531571    
_ENERGY_METHOD=HF
_ENERGY_BASIS=aug-cc-pVTZ
_GEOMETRY_METHOD=
_GEOMETRY_BASIS=
_ENUC=  260.6009937710010    
_EPS1= -105.2428041596163    
_GRADEXFAC=  9999.000000000000    
_GRADMETHOD=  1.000000000000000    
_NMRMETHOD=  0.000000000000000    
_NMRMAGNET=  0.000000000000000    
!GRID_FREEZE= -1.000000000000000    
_ITERATIONS=  10.00000000000000    
_LASTNELEC=  58.00000000000000    
_LASTSPIN=  0.000000000000000    
_LASTSYM=  1.000000000000000    
_MPP_PROG=  0.000000000000000    
_MSNSTATES=  0.000000000000000    
_RS2PHASE=  0.000000000000000    
_NPROC_MPP=  1.000000000000000    
_NPROC_MPPX=  1.000000000000000    
_NPROC_SMP=  1.000000000000000    
_NUMSTEP=  0.000000000000000    
_ORBITAL=  2100.200000000000    
_PI=  3.141592653589793    
_SEIG_MIN= 0.6650323717298601E-04
_SEWPROP=TRUE
_STATUS=  1.000000000000000    
_SYSTOT=  7.470000000000001    
_VERSION=  2015001.000000000    
_WALLTOT=  49.55000000000000    
_DATE=14-Aug-23
_LASTORB=RHF
_MACHINE= 64 bit serial version
_OUTPUT=/scratch/5368711.1.multiway.q/chcl3-scf.xml
_PGROUP=C1
_TIME=11:33:38
_LIBMOL=/home/lambda/ajmk/chem1721/GroupPrograms/Molpro2015/molpro2015/lib/
_VIGRDC=  0.000000000000000    
!VIBCNT=  0.000000000000000    
!RGHFCNT=  0.000000000000000    
!SURFREC=  0.000000000000000    
!ROTREC=  0.000000000000000    
!POLYREC=  0.000000000000000    
!DIPREC=  0.000000000000000    
!DIP4DREC=  0.000000000000000    
!DIPROT=  0.000000000000000    
!DIP4DROT=  0.000000000000000    
!PTREC=  0.000000000000000    
!PT4DREC=  0.000000000000000    
!VSCFREC=  0.000000000000000    
!VCIREC=  0.000000000000000    
!PVCIREC=  0.000000000000000    
!VMP2REC=  0.000000000000000    
!VMCSCFREC=  0.000000000000000    
!VMRCIREC=  0.000000000000000    
!VIBSTATEREC=  0.000000000000000    
!VIBSTATECNT=  0.000000000000000    
!VIBINFO=  0.000000000000000    
!GAREC=  0.000000000000000    
!SCFORB=  21002.00000000000    
!NEWMOL= -1.000000000000000    
!NEWSYM= -1.000000000000000    
_SLFILES=slscratch
_NGSSTO=  9.000000000000000    
_SIN=SIN
_COS=COS
_TAN=TAN
_ACOS=ACOS
_ASIN=ASIN
_ATAN=ATAN
_COSH=COSH
_SINH=SINH
_TANH=TANH
_ABS=ABS
_MOD=MOD
_ERF=ERF
_REFC=REFC
_ERFC=ERFC
_HYPOT=HYPOT
_J0=J0
_J1=J1
_JN=JN
_GAMMA=GAMMA
_LGAMMA=LGAMMA
_Y0=Y0
_Y1=Y1
_YN=YN
_EXP=EXP
_LOG=LOG
_LOG10=LOG10
_SQRT=SQRT
_INT=INT
_NINT=NINT
_MAX=MAX
_MIN=MIN
_COSMO=  0.000000000000000    
_COSMOIT=  0.000000000000000    
_COSMOES=  0.000000000000000    
_COSMOEDS=  0.000000000000000    
_COSMOEC=  0.000000000000000    
_COSMOEDCORR=  0.000000000000000    
_FEPSI=  1.000000000000000    
_SL_IsMM=  0.000000000000000    
_SL_NSYM=  1.000000000000000    
_SL_System_BitSw=  0.000000000000000    
_SL_Unique_atoms=  0.000000000000000    
_SL_GRAD=  0.000000000000000    
_SL_MAXUPD_Hess=  5.000000000000000    
_SL_N_PRINT_COD=  5.000000000000000    
_SL_PRINT_CODES=  0.000000000000000    
_SL_BasType=  0.000000000000000    
_SL_Energy_Pred=  0.000000000000000    
_SL_New_Coords=  0.000000000000000    
_SL_Total_Nuclea=  58.00000000000000    
_SL_Highest_Mltp=  0.000000000000000    
_SL_Ref_Geom=  0.000000000000000    
_SL_Symmetry_ope=  1.000000000000000    
_SL_agrad=  0.000000000000000    
_SL_GrdMax=  0.000000000000000    
_SL_GrdNorm=  0.000000000000000    
_SL_GrdRMS=  0.000000000000000    
_SL_Hss_Q=  0.000000000000000    
_SL_Hss_X=  0.000000000000000    
_SL_BMxOld=  0.000000000000000    
_SL_KtB=  0.000000000000000    
_SL_TROld=  0.000000000000000    
_SL_No_of_Intern=  0.000000000000000    
_SL_Hess=  0.000000000000000    
_SL_K=  0.000000000000000    
!LATTICE= -1.000000000000000    
!NEWLATTICE=  0.000000000000000    
!LATGRAD_VAR=FALSE
!SEW_LATTICE=  1.000000000000000    
!LOCAL=  0.000000000000000    
!SAVEDOM= -1.000000000000000    
!RESTDOM= -1.000000000000000    
!SAVEDOM_HF= -1.000000000000000    
!RESTDOM_HF= -1.000000000000000    
!HESSREC=  0.000000000000000    
!FREQREC=  0.000000000000000    
!NMODREC=  0.000000000000000    
!GTASKS=  0.000000000000000    
!HTASKS=  0.000000000000000    
!SAVEDOM_EOM= -1.000000000000000    
!RESTDOM_EOM= -1.000000000000000    
!GRADSTATE= -1.000000000000000    
!THRCHG= 0.1000000000000000    
!DEBUG= -1.000000000000000    
!CFIT_CPHF=  0.000000000000000    
!RDOMAUX_CPHF=  3.000000000000000    
!THRAO_CPHF= 0.1000000000000000E-09
!THRMO_CPHF= 0.1000000000000000E-08
!THROV_CPHF= 0.1000000000000000E-11
!THRSW_CPHF= 0.1000000000000000E-09
!THRPROD_CPHF= 0.1000000000000000E-08
!THRAOPR_CPHF= 0.1000000000000000E-11
!CFIT_SCFGRD=  0.000000000000000    
!RDOMAUX_SCFGRD=  5.000000000000000    
!THRAO_SCFGRD= 0.1000000000000000E-09
!THRMO_SCFGRD= 0.1000000000000000E-08
!THROV_SCFGRD= 0.1000000000000000E-11
!THRSW_SCFGRD= 0.1000000000000000E-09
!THRPROD_SCFGRD= 0.1000000000000000E-08
!THRAOPR_SCFGRD= 0.1000000000000000E-11
!LOCFIT_SCF=  0.000000000000000    
!LOCFIT_MP2= -1.000000000000000    
_RIDOM=  0.000000000000000    
!CC2_METHOD=  0.000000000000000    
_BASIS2006=FALSE
_SVDDEL= -1.000000000000000    
_SVDDELA= -1.000000000000000    
_SVDDELP= -1.000000000000000    
_SVDDELF= -1.000000000000000    
_SVDDELS= -1.000000000000000    
_SVDDEL_ABS= -1.000000000000000    
_SVDDELA_ABS= -1.000000000000000    
_SVDDELP_ABS= -1.000000000000000    
_SVDDELF_ABS= -1.000000000000000    
_SVDDELS_ABS= -1.000000000000000    
_MAXBASIS=  0.000000000000000    
!OPT_CONICAL=  0.000000000000000    
!CLEARSP_JGRID=  0.000000000000000    
_GRDHYBR=  0.000000000000000    
_STATEGRAD=  1.000000000000000    
_4EXT_NDISKS=  1.000000000000000    
!ZMP=  0.000000000000000    
_MAXIT_ZMP=  500.0000000000000    
_MAXDIS_ZMP=  100.0000000000000    
_ACCU_ZMP=  14.00000000000000    
_SHIFTA_ZMP= -100.0000000000000    
!EMBEDFLAG=  1.000000000000000    
!EMBED=FALSE
!EMBED_F12=FALSE
!EMBEDNUC=  0.000000000000000    
_EMBEDENERGY=  0.000000000000000    
_KSPACETIME=  0.000000000000000    
_RSPACETIME=  0.000000000000000    
!EMBED_DFC=FALSE
!NUM_VOIDS=  0.000000000000000    
_IBODY=  0.000000000000000    
_EMBE_TOTAL=  0.000000000000000    
_EMBE_HF=  0.000000000000000    
_EMBE_CORR=  0.000000000000000    
!EMBED_PROJ=FALSE
!EMBED_TRUNC=  0.000000000000000    
!EMB_PROJ_ZMU=  1000000.000000000    
!CORRECTION=  0.000000000000000    
!CORRECTION_HF=  0.000000000000000    
!EMBED_ENERGY=  0.000000000000000    
!EMBED_NAXC=FALSE
!EMBED_AORB=  0.000000000000000    
!EMBED_NACORR=  0.000000000000000    
!EMBED_MP2=FALSE
!EMBED_TRUNC_PERTURBATION=FALSE
!EMBED_FROZEN=  0.000000000000000    
_CHANGE_BASIS=FALSE
_RESTORE_BASIS=FALSE
_FIX_EMBED_GUESS=FALSE
!EDFT=  0.000000000000000    
_IFASTLATGRAD=  0.000000000000000    
_SINDEX=  0.000000000000000    
_AVDOM_OSV=  0.000000000000000    
_AVDOM_PNO=  0.000000000000000    
_AVDOM_PAO=  0.000000000000000    
_AVDOM_LMO=  0.000000000000000    
_CC2OSV_FLAG=  0.000000000000000    
_TMADC2_FLAG=FALSE
_PROPADC2_FLAG=FALSE
_LEN_VirQ=  0.000000000000000    
_GRDCC2LR_FLAG=FALSE
_GRDADC2_FLAG=FALSE
GEOMTYP=XYZ
GX1=-0.7888200000000000E-05
GY1=  0.000000000000000    
GZ1= 0.4137441783000000    
GX2=-0.3127600000000000E-05
GY2=  0.000000000000000    
GZ2=  1.509107766799999    
GX3=  1.700708504100000    
GY3=  0.000000000000000    
GZ3=-0.1387557245000000    
GX4=-0.8503487442000000    
GY4= -1.472841966100000    
GZ4=-0.1387497175000000    
GX5=-0.8503487442000000    
GY5=  1.472841966100000    
GZ5=-0.1387497175000000    
[Atoms] Angs
C     1    6        -0.0000078882        0.0000000000        0.4137441783
H     2    1        -0.0000031276        0.0000000000        1.5091077668
CL    3   17         1.7007085041        0.0000000000       -0.1387557245
CL    4   17        -0.8503487442       -1.4728419661       -0.1387497175
CL    5   17        -0.8503487442        1.4728419661       -0.1387497175
[GTO]
   1 0
 s   10  1.00
  0.8236000000D+04  0.5309998617D-03
  0.1235000000D+04  0.4107998930D-02
  0.2808000000D+03  0.2108699451D-01
  0.7927000000D+02  0.8185297868D-01
  0.2559000000D+02  0.2348169388D+00
  0.8997000000D+01  0.4344008869D+00
  0.3319000000D+01  0.3461289099D+00
  0.9059000000D+00  0.3937798974D-01
  0.3643000000D+00 -0.8982997660D-02
  0.1285000000D+00  0.2384999379D-02
 s   10  1.00
  0.8236000000D+04 -0.1129999414D-03
  0.1235000000D+04 -0.8779995449D-03
  0.2808000000D+03 -0.4539997647D-02
  0.7927000000D+02 -0.1813299060D-01
  0.2559000000D+02 -0.5575997110D-01
  0.8997000000D+01 -0.1268949342D+00
  0.3319000000D+01 -0.1703519117D+00
  0.9059000000D+00  0.1403819272D+00
  0.3643000000D+00  0.5986836897D+00
  0.1285000000D+00  0.3953887950D+00
 s   10  1.00
  0.8236000000D+04  0.0000000000D+00
  0.1235000000D+04  0.0000000000D+00
  0.2808000000D+03  0.0000000000D+00
  0.7927000000D+02  0.0000000000D+00
  0.2559000000D+02  0.0000000000D+00
  0.8997000000D+01  0.0000000000D+00
  0.3319000000D+01  0.0000000000D+00
  0.9059000000D+00  0.1000000000D+01
  0.3643000000D+00  0.0000000000D+00
  0.1285000000D+00  0.0000000000D+00
 s   10  1.00
  0.8236000000D+04  0.0000000000D+00
  0.1235000000D+04  0.0000000000D+00
  0.2808000000D+03  0.0000000000D+00
  0.7927000000D+02  0.0000000000D+00
  0.2559000000D+02  0.0000000000D+00
  0.8997000000D+01  0.0000000000D+00
  0.3319000000D+01  0.0000000000D+00
  0.9059000000D+00  0.0000000000D+00
  0.3643000000D+00  0.0000000000D+00
  0.1285000000D+00  0.1000000000D+01
 s    1  1.00
  0.4402000000D-01  0.1000000000D+01
 p    5  1.00
  0.1871000000D+02  0.1403099838D-01
  0.4133000000D+01  0.8686598995D-01
  0.1200000000D+01  0.2902159664D+00
  0.3827000000D+00  0.5010079421D+00
  0.1209000000D+00  0.3434059603D+00
 p    5  1.00
  0.1871000000D+02  0.0000000000D+00
  0.4133000000D+01  0.0000000000D+00
  0.1200000000D+01  0.0000000000D+00
  0.3827000000D+00  0.1000000000D+01
  0.1209000000D+00  0.0000000000D+00
 p    5  1.00
  0.1871000000D+02  0.0000000000D+00
  0.4133000000D+01  0.0000000000D+00
  0.1200000000D+01  0.0000000000D+00
  0.3827000000D+00  0.0000000000D+00
  0.1209000000D+00  0.1000000000D+01
 p    1  1.00
  0.3569000000D-01  0.1000000000D+01
 d    1  1.00
  0.1097000000D+01  0.1000000000D+01
 d    1  1.00
  0.3180000000D+00  0.1000000000D+01
 d    1  1.00
  0.1000000000D+00  0.1000000000D+01
 f    1  1.00
  0.7610000000D+00  0.1000000000D+01
 f    1  1.00
  0.2680000000D+00  0.1000000000D+01
  
   2 0
 s    5  1.00
  0.3387000000D+02  0.6067999217D-02
  0.5095000000D+01  0.4530799416D-01
  0.1159000000D+01  0.2028219738D+00
  0.3258000000D+00  0.5039029350D+00
  0.1027000000D+00  0.3834209505D+00
 s    5  1.00
  0.3387000000D+02  0.0000000000D+00
  0.5095000000D+01  0.0000000000D+00
  0.1159000000D+01  0.0000000000D+00
  0.3258000000D+00  0.1000000000D+01
  0.1027000000D+00  0.0000000000D+00
 s    5  1.00
  0.3387000000D+02  0.0000000000D+00
  0.5095000000D+01  0.0000000000D+00
  0.1159000000D+01  0.0000000000D+00
  0.3258000000D+00  0.0000000000D+00
  0.1027000000D+00  0.1000000000D+01
 s    1  1.00
  0.2526000000D-01  0.1000000000D+01
 p    1  1.00
  0.1407000000D+01  0.1000000000D+01
 p    1  1.00
  0.3880000000D+00  0.1000000000D+01
 p    1  1.00
  0.1020000000D+00  0.1000000000D+01
 d    1  1.00
  0.1057000000D+01  0.1000000000D+01
 d    1  1.00
  0.2470000000D+00  0.1000000000D+01
  
   3 0
 s   15  1.00
  0.4561000000D+06  0.4929700679D-04
  0.6833000000D+05  0.3830290528D-03
  0.1555000000D+05  0.2008540277D-02
  0.4405000000D+04  0.8385581155D-02
  0.1439000000D+04  0.2947030406D-01
  0.5204000000D+03  0.8783251210D-01
  0.2031000000D+03  0.2114730291D+00
  0.8396000000D+02  0.3653640503D+00
  0.3620000000D+02  0.3408840469D+00
  0.1583000000D+02  0.1021330141D+00
  0.6334000000D+01  0.3116750429D-02
  0.2694000000D+01  0.1057510146D-02
  0.9768000000D+00 -0.3780000521D-03
  0.4313000000D+00  0.1561360215D-03
  0.1625000000D+00 -0.5141260708D-04
 s   15  1.00
  0.4561000000D+06 -0.1383040937D-04
  0.6833000000D+05 -0.1072790727D-03
  0.1555000000D+05 -0.5650833828D-03
  0.4405000000D+04 -0.2361351600D-02
  0.1439000000D+04 -0.8458865730D-02
  0.5204000000D+03 -0.2596381759D-01
  0.2031000000D+03 -0.6863624650D-01
  0.8396000000D+02 -0.1418740961D+00
  0.3620000000D+02 -0.1993191350D+00
  0.1583000000D+02 -0.1956621326D-01
  0.6334000000D+01  0.4997413386D+00
  0.2694000000D+01  0.5637363819D+00
  0.9768000000D+00  0.7903255354D-01
  0.4313000000D+00 -0.8350915657D-02
  0.1625000000D+00  0.2324561575D-02
 s   15  1.00
  0.4561000000D+06  0.4185461925D-05
  0.6833000000D+05  0.3243951492D-04
  0.1555000000D+05  0.1711050787D-03
  0.4405000000D+04  0.7141763285D-03
  0.1439000000D+04  0.2567051181D-02
  0.5204000000D+03  0.7885523627D-02
  0.2031000000D+03  0.2108670970D-01
  0.8396000000D+02  0.4422642034D-01
  0.3620000000D+02  0.6516702997D-01
  0.1583000000D+02  0.6030122774D-02
  0.6334000000D+01 -0.2064950950D+00
  0.2694000000D+01 -0.4058711867D+00
  0.9768000000D+00  0.7595583494D-01
  0.4313000000D+00  0.7256613338D+00
  0.1625000000D+00  0.3944231814D+00
 s   15  1.00
  0.4561000000D+06  0.0000000000D+00
  0.6833000000D+05  0.0000000000D+00
  0.1555000000D+05  0.0000000000D+00
  0.4405000000D+04  0.0000000000D+00
  0.1439000000D+04  0.0000000000D+00
  0.5204000000D+03  0.0000000000D+00
  0.2031000000D+03  0.0000000000D+00
  0.8396000000D+02  0.0000000000D+00
  0.3620000000D+02  0.0000000000D+00
  0.1583000000D+02  0.0000000000D+00
  0.6334000000D+01  0.0000000000D+00
  0.2694000000D+01  0.0000000000D+00
  0.9768000000D+00  0.1000000000D+01
  0.4313000000D+00  0.0000000000D+00
  0.1625000000D+00  0.0000000000D+00
 s   15  1.00
  0.4561000000D+06  0.0000000000D+00
  0.6833000000D+05  0.0000000000D+00
  0.1555000000D+05  0.0000000000D+00
  0.4405000000D+04  0.0000000000D+00
  0.1439000000D+04  0.0000000000D+00
  0.5204000000D+03  0.0000000000D+00
  0.2031000000D+03  0.0000000000D+00
  0.8396000000D+02  0.0000000000D+00
  0.3620000000D+02  0.0000000000D+00
  0.1583000000D+02  0.0000000000D+00
  0.6334000000D+01  0.0000000000D+00
  0.2694000000D+01  0.0000000000D+00
  0.9768000000D+00  0.0000000000D+00
  0.4313000000D+00  0.0000000000D+00
  0.1625000000D+00  0.1000000000D+01
 s    1  1.00
  0.5910000000D-01  0.1000000000D+01
 p    9  1.00
  0.6633000000D+03  0.2404480300D-02
  0.1568000000D+03  0.1921480240D-01
  0.4998000000D+02  0.8850971104D-01
  0.1842000000D+02  0.2560200319D+00
  0.7240000000D+01  0.4369270545D+00
  0.2922000000D+01  0.3503340437D+00
  0.1022000000D+01  0.5854950730D-01
  0.3818000000D+00 -0.4584230572D-02
  0.1301000000D+00  0.2269700283D-02
 p    9  1.00
  0.6633000000D+03 -0.6521447510D-03
  0.1568000000D+03 -0.5194448017D-02
  0.4998000000D+02 -0.2469379057D-01
  0.1842000000D+02 -0.7281667220D-01
  0.7240000000D+01 -0.1340299488D+00
  0.2922000000D+01 -0.9477416382D-01
  0.1022000000D+01  0.2622888999D+00
  0.3818000000D+00  0.5646667844D+00
  0.1301000000D+00  0.3412498697D+00
 p    9  1.00
  0.6633000000D+03  0.0000000000D+00
  0.1568000000D+03  0.0000000000D+00
  0.4998000000D+02  0.0000000000D+00
  0.1842000000D+02  0.0000000000D+00
  0.7240000000D+01  0.0000000000D+00
  0.2922000000D+01  0.0000000000D+00
  0.1022000000D+01  0.1000000000D+01
  0.3818000000D+00  0.0000000000D+00
  0.1301000000D+00  0.0000000000D+00
 p    9  1.00
  0.6633000000D+03  0.0000000000D+00
  0.1568000000D+03  0.0000000000D+00
  0.4998000000D+02  0.0000000000D+00
  0.1842000000D+02  0.0000000000D+00
  0.7240000000D+01  0.0000000000D+00
  0.2922000000D+01  0.0000000000D+00
  0.1022000000D+01  0.0000000000D+00
  0.3818000000D+00  0.0000000000D+00
  0.1301000000D+00  0.1000000000D+01
 p    1  1.00
  0.4190000000D-01  0.1000000000D+01
 d    1  1.00
  0.1046000000D+01  0.1000000000D+01
 d    1  1.00
  0.3440000000D+00  0.1000000000D+01
 d    1  1.00
  0.1350000000D+00  0.1000000000D+01
 f    1  1.00
  0.7060000000D+00  0.1000000000D+01
 f    1  1.00
  0.3120000000D+00  0.1000000000D+01
  
   4 0
 s   15  1.00
  0.4561000000D+06  0.4929700679D-04
  0.6833000000D+05  0.3830290528D-03
  0.1555000000D+05  0.2008540277D-02
  0.4405000000D+04  0.8385581155D-02
  0.1439000000D+04  0.2947030406D-01
  0.5204000000D+03  0.8783251210D-01
  0.2031000000D+03  0.2114730291D+00
  0.8396000000D+02  0.3653640503D+00
  0.3620000000D+02  0.3408840469D+00
  0.1583000000D+02  0.1021330141D+00
  0.6334000000D+01  0.3116750429D-02
  0.2694000000D+01  0.1057510146D-02
  0.9768000000D+00 -0.3780000521D-03
  0.4313000000D+00  0.1561360215D-03
  0.1625000000D+00 -0.5141260708D-04
 s   15  1.00
  0.4561000000D+06 -0.1383040937D-04
  0.6833000000D+05 -0.1072790727D-03
  0.1555000000D+05 -0.5650833828D-03
  0.4405000000D+04 -0.2361351600D-02
  0.1439000000D+04 -0.8458865730D-02
  0.5204000000D+03 -0.2596381759D-01
  0.2031000000D+03 -0.6863624650D-01
  0.8396000000D+02 -0.1418740961D+00
  0.3620000000D+02 -0.1993191350D+00
  0.1583000000D+02 -0.1956621326D-01
  0.6334000000D+01  0.4997413386D+00
  0.2694000000D+01  0.5637363819D+00
  0.9768000000D+00  0.7903255354D-01
  0.4313000000D+00 -0.8350915657D-02
  0.1625000000D+00  0.2324561575D-02
 s   15  1.00
  0.4561000000D+06  0.4185461925D-05
  0.6833000000D+05  0.3243951492D-04
  0.1555000000D+05  0.1711050787D-03
  0.4405000000D+04  0.7141763285D-03
  0.1439000000D+04  0.2567051181D-02
  0.5204000000D+03  0.7885523627D-02
  0.2031000000D+03  0.2108670970D-01
  0.8396000000D+02  0.4422642034D-01
  0.3620000000D+02  0.6516702997D-01
  0.1583000000D+02  0.6030122774D-02
  0.6334000000D+01 -0.2064950950D+00
  0.2694000000D+01 -0.4058711867D+00
  0.9768000000D+00  0.7595583494D-01
  0.4313000000D+00  0.7256613338D+00
  0.1625000000D+00  0.3944231814D+00
 s   15  1.00
  0.4561000000D+06  0.0000000000D+00
  0.6833000000D+05  0.0000000000D+00
  0.1555000000D+05  0.0000000000D+00
  0.4405000000D+04  0.0000000000D+00
  0.1439000000D+04  0.0000000000D+00
  0.5204000000D+03  0.0000000000D+00
  0.2031000000D+03  0.0000000000D+00
  0.8396000000D+02  0.0000000000D+00
  0.3620000000D+02  0.0000000000D+00
  0.1583000000D+02  0.0000000000D+00
  0.6334000000D+01  0.0000000000D+00
  0.2694000000D+01  0.0000000000D+00
  0.9768000000D+00  0.1000000000D+01
  0.4313000000D+00  0.0000000000D+00
  0.1625000000D+00  0.0000000000D+00
 s   15  1.00
  0.4561000000D+06  0.0000000000D+00
  0.6833000000D+05  0.0000000000D+00
  0.1555000000D+05  0.0000000000D+00
  0.4405000000D+04  0.0000000000D+00
  0.1439000000D+04  0.0000000000D+00
  0.5204000000D+03  0.0000000000D+00
  0.2031000000D+03  0.0000000000D+00
  0.8396000000D+02  0.0000000000D+00
  0.3620000000D+02  0.0000000000D+00
  0.1583000000D+02  0.0000000000D+00
  0.6334000000D+01  0.0000000000D+00
  0.2694000000D+01  0.0000000000D+00
  0.9768000000D+00  0.0000000000D+00
  0.4313000000D+00  0.0000000000D+00
  0.1625000000D+00  0.1000000000D+01
 s    1  1.00
  0.5910000000D-01  0.1000000000D+01
 p    9  1.00
  0.6633000000D+03  0.2404480300D-02
  0.1568000000D+03  0.1921480240D-01
  0.4998000000D+02  0.8850971104D-01
  0.1842000000D+02  0.2560200319D+00
  0.7240000000D+01  0.4369270545D+00
  0.2922000000D+01  0.3503340437D+00
  0.1022000000D+01  0.5854950730D-01
  0.3818000000D+00 -0.4584230572D-02
  0.1301000000D+00  0.2269700283D-02
 p    9  1.00
  0.6633000000D+03 -0.6521447510D-03
  0.1568000000D+03 -0.5194448017D-02
  0.4998000000D+02 -0.2469379057D-01
  0.1842000000D+02 -0.7281667220D-01
  0.7240000000D+01 -0.1340299488D+00
  0.2922000000D+01 -0.9477416382D-01
  0.1022000000D+01  0.2622888999D+00
  0.3818000000D+00  0.5646667844D+00
  0.1301000000D+00  0.3412498697D+00
 p    9  1.00
  0.6633000000D+03  0.0000000000D+00
  0.1568000000D+03  0.0000000000D+00
  0.4998000000D+02  0.0000000000D+00
  0.1842000000D+02  0.0000000000D+00
  0.7240000000D+01  0.0000000000D+00
  0.2922000000D+01  0.0000000000D+00
  0.1022000000D+01  0.1000000000D+01
  0.3818000000D+00  0.0000000000D+00
  0.1301000000D+00  0.0000000000D+00
 p    9  1.00
  0.6633000000D+03  0.0000000000D+00
  0.1568000000D+03  0.0000000000D+00
  0.4998000000D+02  0.0000000000D+00
  0.1842000000D+02  0.0000000000D+00
  0.7240000000D+01  0.0000000000D+00
  0.2922000000D+01  0.0000000000D+00
  0.1022000000D+01  0.0000000000D+00
  0.3818000000D+00  0.0000000000D+00
  0.1301000000D+00  0.1000000000D+01
 p    1  1.00
  0.4190000000D-01  0.1000000000D+01
 d    1  1.00
  0.1046000000D+01  0.1000000000D+01
 d    1  1.00
  0.3440000000D+00  0.1000000000D+01
 d    1  1.00
  0.1350000000D+00  0.1000000000D+01
 f    1  1.00
  0.7060000000D+00  0.1000000000D+01
 f    1  1.00
  0.3120000000D+00  0.1000000000D+01
  
   5 0
 s   15  1.00
  0.4561000000D+06  0.4929700679D-04
  0.6833000000D+05  0.3830290528D-03
  0.1555000000D+05  0.2008540277D-02
  0.4405000000D+04  0.8385581155D-02
  0.1439000000D+04  0.2947030406D-01
  0.5204000000D+03  0.8783251210D-01
  0.2031000000D+03  0.2114730291D+00
  0.8396000000D+02  0.3653640503D+00
  0.3620000000D+02  0.3408840469D+00
  0.1583000000D+02  0.1021330141D+00
  0.6334000000D+01  0.3116750429D-02
  0.2694000000D+01  0.1057510146D-02
  0.9768000000D+00 -0.3780000521D-03
  0.4313000000D+00  0.1561360215D-03
  0.1625000000D+00 -0.5141260708D-04
 s   15  1.00
  0.4561000000D+06 -0.1383040937D-04
  0.6833000000D+05 -0.1072790727D-03
  0.1555000000D+05 -0.5650833828D-03
  0.4405000000D+04 -0.2361351600D-02
  0.1439000000D+04 -0.8458865730D-02
  0.5204000000D+03 -0.2596381759D-01
  0.2031000000D+03 -0.6863624650D-01
  0.8396000000D+02 -0.1418740961D+00
  0.3620000000D+02 -0.1993191350D+00
  0.1583000000D+02 -0.1956621326D-01
  0.6334000000D+01  0.4997413386D+00
  0.2694000000D+01  0.5637363819D+00
  0.9768000000D+00  0.7903255354D-01
  0.4313000000D+00 -0.8350915657D-02
  0.1625000000D+00  0.2324561575D-02
 s   15  1.00
  0.4561000000D+06  0.4185461925D-05
  0.6833000000D+05  0.3243951492D-04
  0.1555000000D+05  0.1711050787D-03
  0.4405000000D+04  0.7141763285D-03
  0.1439000000D+04  0.2567051181D-02
  0.5204000000D+03  0.7885523627D-02
  0.2031000000D+03  0.2108670970D-01
  0.8396000000D+02  0.4422642034D-01
  0.3620000000D+02  0.6516702997D-01
  0.1583000000D+02  0.6030122774D-02
  0.6334000000D+01 -0.2064950950D+00
  0.2694000000D+01 -0.4058711867D+00
  0.9768000000D+00  0.7595583494D-01
  0.4313000000D+00  0.7256613338D+00
  0.1625000000D+00  0.3944231814D+00
 s   15  1.00
  0.4561000000D+06  0.0000000000D+00
  0.6833000000D+05  0.0000000000D+00
  0.1555000000D+05  0.0000000000D+00
  0.4405000000D+04  0.0000000000D+00
  0.1439000000D+04  0.0000000000D+00
  0.5204000000D+03  0.0000000000D+00
  0.2031000000D+03  0.0000000000D+00
  0.8396000000D+02  0.0000000000D+00
  0.3620000000D+02  0.0000000000D+00
  0.1583000000D+02  0.0000000000D+00
  0.6334000000D+01  0.0000000000D+00
  0.2694000000D+01  0.0000000000D+00
  0.9768000000D+00  0.1000000000D+01
  0.4313000000D+00  0.0000000000D+00
  0.1625000000D+00  0.0000000000D+00
 s   15  1.00
  0.4561000000D+06  0.0000000000D+00
  0.6833000000D+05  0.0000000000D+00
  0.1555000000D+05  0.0000000000D+00
  0.4405000000D+04  0.0000000000D+00
  0.1439000000D+04  0.0000000000D+00
  0.5204000000D+03  0.0000000000D+00
  0.2031000000D+03  0.0000000000D+00
  0.8396000000D+02  0.0000000000D+00
  0.3620000000D+02  0.0000000000D+00
  0.1583000000D+02  0.0000000000D+00
  0.6334000000D+01  0.0000000000D+00
  0.2694000000D+01  0.0000000000D+00
  0.9768000000D+00  0.0000000000D+00
  0.4313000000D+00  0.0000000000D+00
  0.1625000000D+00  0.1000000000D+01
 s    1  1.00
  0.5910000000D-01  0.1000000000D+01
 p    9  1.00
  0.6633000000D+03  0.2404480300D-02
  0.1568000000D+03  0.1921480240D-01
  0.4998000000D+02  0.8850971104D-01
  0.1842000000D+02  0.2560200319D+00
  0.7240000000D+01  0.4369270545D+00
  0.2922000000D+01  0.3503340437D+00
  0.1022000000D+01  0.5854950730D-01
  0.3818000000D+00 -0.4584230572D-02
  0.1301000000D+00  0.2269700283D-02
 p    9  1.00
  0.6633000000D+03 -0.6521447510D-03
  0.1568000000D+03 -0.5194448017D-02
  0.4998000000D+02 -0.2469379057D-01
  0.1842000000D+02 -0.7281667220D-01
  0.7240000000D+01 -0.1340299488D+00
  0.2922000000D+01 -0.9477416382D-01
  0.1022000000D+01  0.2622888999D+00
  0.3818000000D+00  0.5646667844D+00
  0.1301000000D+00  0.3412498697D+00
 p    9  1.00
  0.6633000000D+03  0.0000000000D+00
  0.1568000000D+03  0.0000000000D+00
  0.4998000000D+02  0.0000000000D+00
  0.1842000000D+02  0.0000000000D+00
  0.7240000000D+01  0.0000000000D+00
  0.2922000000D+01  0.0000000000D+00
  0.1022000000D+01  0.1000000000D+01
  0.3818000000D+00  0.0000000000D+00
  0.1301000000D+00  0.0000000000D+00
 p    9  1.00
  0.6633000000D+03  0.0000000000D+00
  0.1568000000D+03  0.0000000000D+00
  0.4998000000D+02  0.0000000000D+00
  0.1842000000D+02  0.0000000000D+00
  0.7240000000D+01  0.0000000000D+00
  0.2922000000D+01  0.0000000000D+00
  0.1022000000D+01  0.0000000000D+00
  0.3818000000D+00  0.0000000000D+00
  0.1301000000D+00  0.1000000000D+01
 p    1  1.00
  0.4190000000D-01  0.1000000000D+01
 d    1  1.00
  0.1046000000D+01  0.1000000000D+01
 d    1  1.00
  0.3440000000D+00  0.1000000000D+01
 d    1  1.00
  0.1350000000D+00  0.1000000000D+01
 f    1  1.00
  0.7060000000D+00  0.1000000000D+01
 f    1  1.00
  0.3120000000D+00  0.1000000000D+01


[MO]
 Sym=      1.1
 Ene=    -105.2428
 Spin= Alpha
 Occup=    2.000000
1 0.000000000057852
2 0.000000000211891
3 0.000000000128016
4 -0.000000007561912
5 -0.000000002054750
6 -0.000000000361625
7 0.000576062454234
8 0.000000000002715
9 0.000000001721005
10 -0.002742259051041
11 -0.000000000035941
12 0.000000012856958
13 -0.020487386642676
14 0.000000001875697
15 0.000000001486081
16 -0.002367925709870
17 0.000000000257936
18 0.000000000136788
19 -0.000000000149404
20 0.000000000012616
21 0.000263309342378
22 -0.000000000066074
23 0.000105305023593
24 0.000000000168477
25 -0.000000000114496
26 -0.000000000053981
27 0.000260238218294
28 0.000000000119953
29 -0.000191327885776
30 0.000000000665798
31 -0.000000000845696
32 0.000000000179898
33 0.001390570911504
34 -0.000000003651189
35 0.005817811020203
36 -0.000000000044839
37 0.000014378879206
38 -0.000000000024171
39 0.000000000044020
40 0.000006438817821
41 -0.000000000097811
42 0.000000000016138
43 -0.000025730108628
44 0.000000000130240
45 -0.000209793748511
46 -0.000000000291468
47 0.000533008782980
48 -0.000000000195008
49 -0.000000000207285
50 0.000238368519269
51 0.000000001085559
52 0.000000000598331
53 -0.000953474842078
54 -0.000000000823929
55 0.001756742922863
56 -0.000000000008633
57 0.000000000785393
58 -0.000000000814186
59 -0.000000000043165
60 0.000000000061133
61 -0.000097415114218
62 -0.000000000018512
63 -0.000000001019836
64 0.001625176117637
65 -0.000000000138192
66 0.000000001464112
67 -0.002332850926617
68 0.000000000245668
69 -0.000000000066295
70 0.000000000062401
71 0.000000000003894
72 -0.000118401916225
73 0.000000000152606
74 -0.000243186150384
75 -0.000000000133955
76 0.000000000149041
77 -0.000000000015086
78 -0.000260350104132
79 -0.000000000049995
80 0.000079622371992
81 0.000000430860744
82 0.000000003105677
83 0.000000007458733
84 -0.000000001916270
85 -0.000000012966475
86 -0.000000006182864
87 -0.000000000426141
88 0.000400744197647
89 -0.000000000116798
90 -0.000000001416605
91 0.001234018679937
92 -0.000000000336508
93 0.000000000413253
94 -0.000617331643733
95 0.000000000244099
96 0.000000007730557
97 0.001979575019596
98 -0.000000001418167
99 0.000000000737692
100 0.000092538705209
101 -0.000000000191691
102 0.000000000139270
103 -0.000000000102705
104 -0.000000000036565
105 0.000140344190977