[Molden Format]
[Atoms] Angs
C     1    6         0.0000000000        0.0000000000       -0.6443045972
O     2    8         0.0000000000        0.0000000000        0.4836895456
[GTO]
   1 0
 s    6  1.00
  0.3047524900D+04  0.1834737091D-02
  0.4573695200D+03  0.1403732293D-01
  0.1039486800D+03  0.6884262165D-01
  0.2921015500D+02  0.2321844388D+00
  0.9286663000D+01  0.4679413476D+00
  0.3163927000D+01  0.3623119882D+00
 s    3  1.00
  0.7868272300D+01 -0.1193324245D+00
  0.1881288500D+01 -0.1608541561D+00
  0.5442492600D+00  0.1143456443D+01
 s    1  1.00
  0.1687144800D+00  0.1000000000D+01
 p    3  1.00
  0.7868272300D+01  0.6899906693D-01
  0.1881288500D+01  0.3164239597D+00
  0.5442492600D+00  0.7443082892D+00
 p    1  1.00
  0.1687144800D+00  0.1000000000D+01
  
   2 0
 s    6  1.00
  0.5484671700D+04  0.1831074396D-02
  0.8252349500D+03  0.1395017197D-01
  0.1880469600D+03  0.6844507786D-01
  0.5296450000D+02  0.2327143395D+00
  0.1689757000D+02  0.4701928990D+00
  0.5799635300D+01  0.3585208493D+00
 s    3  1.00
  0.1553961600D+02 -0.1107775519D+00
  0.3599933600D+01 -0.1480262626D+00
  0.1013761800D+01  0.1130767020D+01
 s    1  1.00
  0.2700058200D+00  0.1000000000D+01
 p    3  1.00
  0.1553961600D+02  0.7087426737D-01
  0.3599933600D+01  0.3397528370D+00
  0.1013761800D+01  0.7271585736D+00
 p    1  1.00
  0.2700058200D+00  0.1000000000D+01
 
 
[MO]
 Sym=      1.1
 Ene=     -20.6346
 Spin= Alpha
 Occup=    2.000000
1 -0.000268256532196
2 -0.001865493647136
3 0.003233306750259
4 0.0
5 0.0
6 0.002430911505556
7 0.0
8 0.0
9 0.006569758447564
10 1.00583473736735
11 -0.002956690745538
12 -0.041427445515020
13 0.0
14 0.0
15 -0.015722416428211
16 0.0
17 0.0
18 -0.003821522979925
 Sym=      2.1
 Ene=     -11.3267
 Spin= Alpha
 Occup=    2.000000
1 1.00182857546757
2 0.011165604647672
3 -0.023995341426895
4 0.0
5 0.0
6 0.013909185425875
7 0.0
8 0.0
9 0.003244164451260
10 0.004362739223724
11 -0.007307386746541
12 -0.008267826522233
13 0.0
14 0.0
15 -0.006548149360997
16 0.0
17 0.0
18 -0.001652760483982
 Sym=      3.1
 Ene=      -1.3190
 Spin= Alpha
 Occup=    1.998098
1 -0.036047112786192
2 0.083038412856041
3 0.085825726728434
4 0.0
5 0.0
6 -0.029659018110230
7 0.0
8 0.0
9 -0.055408444091543
10 -0.16292619419198
11 0.48961436207931
12 0.52615602168639
13 0.0
14 0.0
15 0.19814215012896
16 0.0
17 0.0
18 0.12479163556264
 Sym=      4.1
 Ene=      -0.7453
 Spin= Alpha
 Occup=    1.986310
1 0.19019214162069
2 -0.44893512427162
3 -0.57052424529519
4 0.0
5 0.0
6 0.10520231738884
7 0.0
8 0.0
9 0.092029079628495
10 -0.031111934575414
11 0.095970949301078
12 0.25756766782397
13 0.0
14 0.0
15 0.23412671660547
16 0.0
17 0.0
18 0.063652490513889
 Sym=      7.1
 Ene=      -0.6331
 Spin= Alpha
 Occup=    1.951450
1 0.0
2 0.0
3 0.0
4 0.0
5 -0.32280508636908
6 0.0
7 0.0
8 -0.12733534883098
9 0.0
10 0.0
11 0.0
12 0.0
13 0.0
14 -0.56112489942128
15 0.0
16 0.0
17 -0.35370937035949
18 0.0
 Sym=     10.1
 Ene=       1.0982
 Spin= Alpha
 Occup=    0.021092
1 0.093019319564575
2 -0.56445105139359
3 -0.090037959430867
4 0.0
5 0.0
6 -0.90004942682240
7 0.0
8 0.0
9 -0.12847169068951
10 -0.080080501297086
11 0.50308245700262
12 0.26921731019346
13 0.0
14 0.0
15 -0.86094585078282
16 0.0
17 0.0
18 0.024708639500150
 Sym=      5.1
 Ene=      -0.8863
 Spin= Alpha
 Occup=    1.979830
1 0.022257836345600
2 -0.070446504403575
3 0.40995642110092
4 0.0
5 0.0
6 -0.48907358119243
7 0.0
8 0.0
9 -0.039975817148559
10 0.077567334836180
11 -0.17758704511466
12 -0.091595080081965
13 0.0
14 0.0
15 0.51813437889036
16 0.0
17 0.0
18 0.23398792205849
 Sym=      8.1
 Ene=       0.3021
 Spin= Alpha
 Occup=    0.055885
1 0.0
2 0.0
3 0.0
4 0.0
5 0.65503727713908
6 0.0
7 0.0
8 0.26851579060099
9 0.0
10 0.0
11 0.0
12 0.0
13 0.0
14 -0.68391626408364
15 0.0
16 0.0
17 0.005100959046117
18 0.0
 Sym=      6.1
 Ene=      -0.6331
 Spin= Alpha
 Occup=    1.951450
1 0.0
2 0.0
3 0.0
4 0.32280508634635
5 0.0
6 0.0
7 0.12733534877751
8 0.0
9 0.0
10 0.0
11 0.0
12 0.0
13 0.56112489941603
14 0.0
15 0.0
16 0.35370937042112
17 0.0
18 0.0
 Sym=      9.1
 Ene=       0.3021
 Spin= Alpha
 Occup=    0.055885
1 0.0
2 0.0
3 0.0
4 0.65503727713635
5 0.0
6 0.0
7 0.26851579054017
8 0.0
9 0.0
10 0.0
11 0.0
12 0.0
13 -0.68391626413673
14 0.0
15 0.0
16 0.005100959195257
17 0.0
18 0.0
 Sym=     11.1
 Ene=       0.5318
 Spin= Alpha
 Occup=    0.000000
1 -0.000792771608375
2 0.49586140936147
3 -2.06841768411733
4 0.0
5 0.0
6 0.32670243470668
7 0.0
8 0.0
9 -1.96837924394904
10 -0.064121882080707
11 0.014881815727173
12 1.98139524951291
13 0.0
14 0.0
15 0.24415443620971
16 0.0
17 0.0
18 -0.72423592862059
 Sym=     12.1
 Ene=       0.7162
 Spin= Alpha
 Occup=    0.000000
1 0.0
2 0.0
3 0.0
4 -0.94173408305654
5 0.0
6 0.0
7 1.29621079878650
8 0.0
9 0.0
10 0.0
11 0.0
12 0.0
13 -0.022192325671024
14 0.0
15 0.0
16 -0.29048891182009
17 0.0
18 0.0
 Sym=     13.1
 Ene=       0.7162
 Spin= Alpha
 Occup=    0.000000
1 0.0
2 0.0
3 0.0
4 0.0
5 -0.94173408308191
6 0.0
7 0.0
8 1.29621079875100
9 0.0
10 0.0
11 0.0
12 0.0
13 0.0
14 -0.022192325716815
15 0.0
16 0.0
17 -0.29048891174882
18 0.0
 Sym=     14.1
 Ene=       0.7968
 Spin= Alpha
 Occup=    0.000000
1 -0.067982654507004
2 1.30460312349397
3 -1.57144676952373
4 0.0
5 0.0
6 -0.63001412247034
7 0.0
8 0.0
9 0.44343039867545
10 -0.015263166079992
11 0.075113393542466
12 0.24209799989223
13 0.0
14 0.0
15 0.10413083858097
16 0.0
17 0.0
18 -0.29298341117935
 Sym=     15.1
 Ene=       1.0374
 Spin= Alpha
 Occup=    0.000000
1 0.028386172463115
2 0.99836622421137
3 0.31639995116795
4 0.0
5 0.0
6 0.50551559344266
7 0.0
8 0.0
9 0.090773202856293
10 0.074177141495333
11 -0.25668342518884
12 -0.58569312718657
13 0.0
14 0.0
15 -0.53652601930496
16 0.0
17 0.0
18 1.65575290990190
 Sym=     16.1
 Ene=       1.0654
 Spin= Alpha
 Occup=    0.000000
1 0.0
2 0.0
3 0.0
4 -0.25066214582712
5 0.0
6 0.0
7 -0.54513784644529
8 0.0
9 0.0
10 0.0
11 0.0
12 0.0
13 -0.77100819096675
14 0.0
15 0.0
16 1.34637420739469
17 0.0
18 0.0
 Sym=     17.1
 Ene=       1.0654
 Spin= Alpha
 Occup=    0.000000
1 0.0
2 0.0
3 0.0
4 0.0
5 0.25066214569540
6 0.0
7 0.0
8 0.54513784648726
9 0.0
10 0.0
11 0.0
12 0.0
13 0.0
14 0.77100819100870
15 0.0
16 0.0
17 -1.34637420742683
18 0.0
 Sym=     18.1
 Ene=       1.7974
 Spin= Alpha
 Occup=    0.000000
1 -0.042589099613987
2 -0.41894913256936
3 -2.42574588413159
4 0.0
5 0.0
6 -0.46053338752876
7 0.0
8 0.0
9 -1.50083403184897
10 0.023041278239426
11 -1.83688007553461
12 4.39267647752217
13 0.0
14 0.0
15 0.005901764455080
16 0.0
17 0.0
18 -1.55165608825378
