[Molden Format]
[Atoms] Angs
H     1    1         0.0000000000        0.0000000000        0.0000000000
H     2    1         0.0000000000        0.0000000000        1.7042840000
[GTO]
   1 0
 s    5  1.00
  0.3387000000D+02  0.6067999217D-02
  0.5095000000D+01  0.4530799416D-01
  0.1159000000D+01  0.2028219738D+00
  0.3258000000D+00  0.5039029350D+00
  0.1027000000D+00  0.3834209505D+00
 s    5  1.00
  0.3387000000D+02  0.0000000000D+00
  0.5095000000D+01  0.0000000000D+00
  0.1159000000D+01  0.0000000000D+00
  0.3258000000D+00  0.1000000000D+01
  0.1027000000D+00  0.0000000000D+00
 s    5  1.00
  0.3387000000D+02  0.0000000000D+00
  0.5095000000D+01  0.0000000000D+00
  0.1159000000D+01  0.0000000000D+00
  0.3258000000D+00  0.0000000000D+00
  0.1027000000D+00  0.1000000000D+01
 s    1  1.00
  0.2526000000D-01  0.1000000000D+01
 p    1  1.00
  0.1407000000D+01  0.1000000000D+01
 p    1  1.00
  0.3880000000D+00  0.1000000000D+01
 p    1  1.00
  0.1020000000D+00  0.1000000000D+01
 d    1  1.00
  0.1057000000D+01  0.1000000000D+01
 d    1  1.00
  0.2470000000D+00  0.1000000000D+01
  
   2 0
 s    5  1.00
  0.3387000000D+02  0.6067999217D-02
  0.5095000000D+01  0.4530799416D-01
  0.1159000000D+01  0.2028219738D+00
  0.3258000000D+00  0.5039029350D+00
  0.1027000000D+00  0.3834209505D+00
 s    5  1.00
  0.3387000000D+02  0.0000000000D+00
  0.5095000000D+01  0.0000000000D+00
  0.1159000000D+01  0.0000000000D+00
  0.3258000000D+00  0.1000000000D+01
  0.1027000000D+00  0.0000000000D+00
 s    5  1.00
  0.3387000000D+02  0.0000000000D+00
  0.5095000000D+01  0.0000000000D+00
  0.1159000000D+01  0.0000000000D+00
  0.3258000000D+00  0.0000000000D+00
  0.1027000000D+00  0.1000000000D+01
 s    1  1.00
  0.2526000000D-01  0.1000000000D+01
 p    1  1.00
  0.1407000000D+01  0.1000000000D+01
 p    1  1.00
  0.3880000000D+00  0.1000000000D+01
 p    1  1.00
  0.1020000000D+00  0.1000000000D+01
 d    1  1.00
  0.1057000000D+01  0.1000000000D+01
 d    1  1.00
  0.2470000000D+00  0.1000000000D+01


[MO]
 Sym=      1.1
 Ene=      -0.3651
 Spin= Alpha
 Occup=    1.725373
1 0.63550008396407
2 -0.018512106065834
3 -0.011223480304381
4 0.008123778765660
5 0.0
6 0.0
7 0.001463991610608
8 0.0
9 0.0
10 0.009176389671208
11 0.0
12 0.0
13 0.007065364568879
14 -0.000462858576748
15 -0.000462858576748
16 0.000925717153497
17 0.0
18 0.0
19 0.0
20 -0.001438706590279
21 -0.001438706590279
22 0.002877413180558
23 0.0
24 0.0
25 0.0
26 0.63549991755168
27 -0.018511466417304
28 -0.011223166347813
29 0.008124350378485
30 0.0
31 0.0
32 -0.001464039265202
33 0.0
34 0.0
35 -0.009176470086614
36 0.0
37 0.0
38 -0.007066063167229
39 -0.000462858983704
40 -0.000462858983704
41 0.000925717967408
42 0.0
43 0.0
44 0.0
45 -0.001438772330186
46 -0.001438772330186
47 0.002877544660372
48 0.0
49 0.0
50 0.0
 Sym=      2.1
 Ene=       0.0252
 Spin= Alpha
 Occup=    0.271274
1 0.86121137148392
2 0.031852684429191
3 -0.041618681701607
4 -0.003770620002965
5 0.0
6 0.0
7 -0.000773281848445
8 0.0
9 0.0
10 0.007766426891121
11 0.0
12 0.0
13 0.019764896696258
14 0.000017340000319
15 0.000017340000319
16 -0.000034680000638
17 0.0
18 0.0
19 0.0
20 -0.001112627662266
21 -0.001112627662266
22 0.002225255324532
23 0.0
24 0.0
25 0.0
26 -0.86121005653781
27 -0.031851266529324
28 0.041615399522748
29 0.003771697422814
30 0.0
31 0.0
32 -0.000773559560131
33 0.0
34 0.0
35 0.007766771329927
36 0.0
37 0.0
38 0.019764575460682
39 -0.000017387036561
40 -0.000017387036561
41 0.000034774073121
42 0.0
43 0.0
44 0.0
45 0.001112771340746
46 0.001112771340746
47 -0.002225542681491
48 0.0
49 0.0
50 0.0
 Sym=      3.1
 Ene=       0.6035
 Spin= Alpha
 Occup=    0.003075
1 -0.29428378487768
2 -0.18652901974473
3 0.60186000957273
4 0.025605433235399
5 0.0
6 0.0
7 -0.051229001023994
8 0.0
9 0.0
10 -0.41213280177877
11 0.0
12 0.0
13 -0.057031984327623
14 0.026777222553475
15 0.026777222553475
16 -0.053554445106949
17 0.0
18 0.0
19 0.0
20 0.045378570404589
21 0.045378570404589
22 -0.090757140809177
23 0.0
24 0.0
25 0.0
26 -0.29428457705075
27 -0.18651881609323
28 0.60183309836192
29 0.025553444898705
30 0.0
31 0.0
32 0.051229190572559
33 0.0
34 0.0
35 0.41213643353049
36 0.0
37 0.0
38 0.057045722922726
39 0.026776747484012
40 0.026776747484012
41 -0.053553494968024
42 0.0
43 0.0
44 0.0
45 0.045378954605146
46 0.045378954605146
47 -0.090757909210292
48 0.0
49 0.0
50 0.0
 Sym=      4.1
 Ene=       0.9409
 Spin= Alpha
 Occup=    0.000278
1 2.11697132318539
2 -0.71177769179205
3 -1.33479427677459
4 0.043810553965112
5 0.0
6 0.0
7 0.023183157541115
8 0.0
9 0.0
10 -0.21206113779687
11 0.0
12 0.0
13 -0.18192747498052
14 -0.003467316642514
15 -0.003467316642514
16 0.006934633285027
17 0.0
18 0.0
19 0.0
20 0.037697445160982
21 0.037697445160982
22 -0.075394890321963
23 0.0
24 0.0
25 0.0
26 2.11731973171537
27 -0.71178993669922
28 -1.33514102455285
29 0.043798912823798
30 0.0
31 0.0
32 -0.023202944795597
33 0.0
34 0.0
35 0.21188188974495
36 0.0
37 0.0
38 0.18189810494770
39 -0.003472600052124
40 -0.003472600052124
41 0.006945200104247
42 0.0
43 0.0
44 0.0
45 0.037670431168818
46 0.037670431168818
47 -0.075340862337636
48 0.0
49 0.0
50 0.0
 Sym=      5.1
 Ene=       0.0673
 Spin= Alpha
 Occup=   -0.000000
1 0.11600317094735
2 -0.042991811128405
3 -0.067282552188920
4 -2.55483003950552
5 0.0
6 0.0
7 -0.001425990967824
8 0.0
9 0.0
10 0.004766410993364
11 0.0
12 0.0
13 -0.36411743823758
14 -0.001056702449430
15 -0.001056702449430
16 0.002113404898860
17 0.0
18 0.0
19 0.0
20 0.019329862116167
21 0.019329862116167
22 -0.038659724232335
23 0.0
24 0.0
25 0.0
26 -0.11594804762257
27 0.043011159998409
28 0.067284728992874
29 2.55477901006694
30 0.0
31 0.0
32 -0.001424454223578
33 0.0
34 0.0
35 0.004778402277881
36 0.0
37 0.0
38 -0.36403804570576
39 0.001056638288933
40 0.001056638288933
41 -0.002113276577867
42 0.0
43 0.0
44 0.0
45 -0.019327091454457
46 -0.019327091454457
47 0.038654182908913
48 0.0
49 0.0
50 0.0
 Sym=      6.1
 Ene=       0.1351
 Spin= Alpha
 Occup=   -0.000000
1 0.017531149928704
2 -0.39384633059891
3 1.05953798695209
4 -0.89079344578548
5 0.0
6 0.0
7 -0.003850142316460
8 0.0
9 0.0
10 -0.037621112286522
11 0.0
12 0.0
13 -0.18235377766854
14 -0.000629807645176
15 -0.000629807645176
16 0.001259615290351
17 0.0
18 0.0
19 0.0
20 0.016183794034159
21 0.016183794034159
22 -0.032367588068318
23 0.0
24 0.0
25 0.0
26 0.017508289065351
27 -0.39387767675482
28 1.05949837694163
29 -0.89106143116265
30 0.0
31 0.0
32 0.003851066120795
33 0.0
34 0.0
35 0.037629778547380
36 0.0
37 0.0
38 0.18248750154323
39 -0.000630096296400
40 -0.000630096296400
41 0.001260192592801
42 0.0
43 0.0
44 0.0
45 0.016189305690916
46 0.016189305690916
47 -0.032378611381832
48 0.0
49 0.0
50 0.0
 Sym=      7.1
 Ene=       0.1926
 Spin= Alpha
 Occup=   -0.000000
1 0.0
2 0.0
3 0.0
4 0.0
5 0.0
6 0.021456947861685
7 0.0
8 0.0
9 -0.066898604338927
10 0.0
11 0.0
12 0.59647327120096
13 0.0
14 0.0
15 0.0
16 0.0
17 0.0
18 0.0
19 0.003072418192376
20 0.0
21 0.0
22 0.0
23 0.0
24 0.0
25 -0.022256487359087
26 0.0
27 0.0
28 0.0
29 0.0
30 0.0
31 0.021456947449284
32 0.0
33 0.0
34 -0.066898605066091
35 0.0
36 0.0
37 0.59647321685813
38 0.0
39 0.0
40 0.0
41 0.0
42 0.0
43 0.0
44 -0.003072418650433
45 0.0
46 0.0
47 0.0
48 0.0
49 0.0
50 0.022256493149676
 Sym=      8.1
 Ene=       0.1926
 Spin= Alpha
 Occup=   -0.000000
1 0.0
2 0.0
3 0.0
4 0.0
5 0.021456947861685
6 0.0
7 0.0
8 -0.066898604338927
9 0.0
10 0.0
11 0.59647327120096
12 0.0
13 0.0
14 0.0
15 0.0
16 0.0
17 0.0
18 0.003072418192376
19 0.0
20 0.0
21 0.0
22 0.0
23 0.0
24 -0.022256487359087
25 0.0
26 0.0
27 0.0
28 0.0
29 0.0
30 0.021456947449284
31 0.0
32 0.0
33 -0.066898605066092
34 0.0
35 0.0
36 0.59647321685813
37 0.0
38 0.0
39 0.0
40 0.0
41 0.0
42 0.0
43 -0.003072418650433
44 0.0
45 0.0
46 0.0
47 0.0
48 0.0
49 0.022256493149676
50 0.0
 Sym=      9.1
 Ene=       0.2951
 Spin= Alpha
 Occup=   -0.000000
1 0.0
2 0.0
3 0.0
4 0.0
5 0.023349535357391
6 0.0
7 0.0
8 -0.098510175870420
9 0.0
10 0.0
11 1.23730479731927
12 0.0
13 0.0
14 0.0
15 0.0
16 0.0
17 0.0
18 -0.006866458600254
19 0.0
20 0.0
21 0.0
22 0.0
23 0.0
24 0.080135004020945
25 0.0
26 0.0
27 0.0
28 0.0
29 0.0
30 -0.023349536683923
31 0.0
32 0.0
33 0.098510189280991
34 0.0
35 0.0
36 -1.23730482950888
37 0.0
38 0.0
39 0.0
40 0.0
41 0.0
42 0.0
43 -0.006866458216857
44 0.0
45 0.0
46 0.0
47 0.0
48 0.0
49 0.080135002675116
50 0.0
 Sym=     10.1
 Ene=       0.2951
 Spin= Alpha
 Occup=   -0.000000
1 0.0
2 0.0
3 0.0
4 0.0
5 0.0
6 0.023349535357391
7 0.0
8 0.0
9 -0.098510175870420
10 0.0
11 0.0
12 1.23730479731927
13 0.0
14 0.0
15 0.0
16 0.0
17 0.0
18 0.0
19 -0.006866458600254
20 0.0
21 0.0
22 0.0
23 0.0
24 0.0
25 0.080135004020945
26 0.0
27 0.0
28 0.0
29 0.0
30 0.0
31 -0.023349536683923
32 0.0
33 0.0
34 0.098510189280991
35 0.0
36 0.0
37 -1.23730482950888
38 0.0
39 0.0
40 0.0
41 0.0
42 0.0
43 0.0
44 -0.006866458216856
45 0.0
46 0.0
47 0.0
48 0.0
49 0.0
50 0.080135002675116
 Sym=     11.1
 Ene=       0.3264
 Spin= Alpha
 Occup=   -0.000000
1 0.17732385514900
2 -0.012035460425579
3 4.40938833466304
4 1.66133499358231
5 0.0
6 0.0
7 -0.003094814490948
8 0.0
9 0.0
10 0.066739416407617
11 0.0
12 0.0
13 3.61192487144390
14 0.007774449078709
15 0.007774449078709
16 -0.015548898157417
17 0.0
18 0.0
19 0.0
20 -0.16933925560925
21 -0.16933925560925
22 0.33867851121851
23 0.0
24 0.0
25 0.0
26 -0.17727848721869
27 0.012180558792267
28 -4.40954539941760
29 -1.66127439374752
30 0.0
31 0.0
32 -0.003090070474367
33 0.0
34 0.0
35 0.066704621925182
36 0.0
37 0.0
38 3.61208772194941
39 -0.007774477649662
40 -0.007774477649662
41 0.015548955299325
42 0.0
43 0.0
44 0.0
45 0.16933698659420
46 0.16933698659420
47 -0.33867397318840
48 0.0
49 0.0
50 0.0
 Sym=     12.1
 Ene=       0.5135
 Spin= Alpha
 Occup=   -0.000000
1 0.23379798702418
2 -0.15243661593386
3 -0.50555705735305
4 0.10311704508462
5 0.0
6 0.0
7 0.040312074639364
8 0.0
9 0.0
10 -0.54327233404444
11 0.0
12 0.0
13 1.05196734853865
14 0.002206086670816
15 0.002206086670816
16 -0.004412173341631
17 0.0
18 0.0
19 0.0
20 0.007952395601726
21 0.007952395601726
22 -0.015904791203452
23 0.0
24 0.0
25 0.0
26 0.23392593403486
27 -0.15161621413461
28 -0.51143140358492
29 0.10309944414944
30 0.0
31 0.0
32 -0.040336899052797
33 0.0
34 0.0
35 0.54342705599033
36 0.0
37 0.0
38 -1.04902318411657
39 0.002201496147823
40 0.002201496147823
41 -0.004402992295646
42 0.0
43 0.0
44 0.0
45 0.008120350979263
46 0.008120350979263
47 -0.016240701958526
48 0.0
49 0.0
50 0.0
 Sym=     13.1
 Ene=       0.5618
 Spin= Alpha
 Occup=   -0.000000
1 -0.16399757536996
2 -1.11052883052658
3 6.84317315998397
4 -0.15468532055318
5 0.0
6 0.0
7 -0.032561158111149
8 0.0
9 0.0
10 0.23868197962303
11 0.0
12 0.0
13 3.15675873606334
14 0.003988530811552
15 0.003988530811552
16 -0.007977061623104
17 0.0
18 0.0
19 0.0
20 -0.18586671933529
21 -0.18586671933529
22 0.37173343867058
23 0.0
24 0.0
25 0.0
26 0.16375668425806
27 1.11047541479479
28 -6.84254260719998
29 0.15454631565579
30 0.0
31 0.0
32 -0.032528799515806
33 0.0
34 0.0
35 0.23819929786219
36 0.0
37 0.0
38 3.15754743438187
39 -0.003990939617747
40 -0.003990939617747
41 0.007981879235495
42 0.0
43 0.0
44 0.0
45 0.18586615315690
46 0.18586615315690
47 -0.37173230631380
48 0.0
49 0.0
50 0.0
 Sym=     14.1
 Ene=       0.7518
 Spin= Alpha
 Occup=   -0.000000
1 0.0
2 0.0
3 0.0
4 0.0
5 0.0
6 0.0
7 0.0
8 0.0
9 0.0
10 0.0
11 0.0
12 0.0
13 0.0
14 -0.041068700654568
15 0.041068700654568
16 0.0
17 0.0
18 0.0
19 0.0
20 0.55614606054923
21 -0.55614606054923
22 0.0
23 0.0
24 0.0
25 0.0
26 0.0
27 0.0
28 0.0
29 0.0
30 0.0
31 0.0
32 0.0
33 0.0
34 0.0
35 0.0
36 0.0
37 0.0
38 0.0
39 -0.041068699631153
40 0.041068699631153
41 0.0
42 0.0
43 0.0
44 0.0
45 0.55614601983680
46 -0.55614601983680
47 0.0
48 0.0
49 0.0
50 0.0
 Sym=     15.1
 Ene=       0.7518
 Spin= Alpha
 Occup=   -0.000000
1 0.0
2 0.0
3 0.0
4 0.0
5 0.0
6 0.0
7 0.0
8 0.0
9 0.0
10 0.0
11 0.0
12 0.0
13 0.0
14 0.0
15 0.0
16 0.0
17 -0.047422050756365
18 0.0
19 0.0
20 0.0
21 0.0
22 0.0
23 0.64218215553368
24 0.0
25 0.0
26 0.0
27 0.0
28 0.0
29 0.0
30 0.0
31 0.0
32 0.0
33 0.0
34 0.0
35 0.0
36 0.0
37 0.0
38 0.0
39 0.0
40 0.0
41 0.0
42 -0.047422049574628
43 0.0
44 0.0
45 0.0
46 0.0
47 0.0
48 0.64218210852303
49 0.0
50 0.0
 Sym=     16.1
 Ene=       0.8311
 Spin= Alpha
 Occup=   -0.000000
1 0.0
2 0.0
3 0.0
4 0.0
5 -0.021936994449280
6 0.0
7 0.0
8 0.32272287465228
9 0.0
10 0.0
11 -0.24894632813033
12 0.0
13 0.0
14 0.0
15 0.0
16 0.0
17 0.0
18 -0.039527410856673
19 0.0
20 0.0
21 0.0
22 0.0
23 0.0
24 0.53726125768250
25 0.0
26 0.0
27 0.0
28 0.0
29 0.0
30 -0.021936993190523
31 0.0
32 0.0
33 0.32272285123035
34 0.0
35 0.0
36 -0.24894630832433
37 0.0
38 0.0
39 0.0
40 0.0
41 0.0
42 0.0
43 0.039527413477366
44 0.0
45 0.0
46 0.0
47 0.0
48 0.0
49 -0.53726125312297
50 0.0
 Sym=     17.1
 Ene=       0.8311
 Spin= Alpha
 Occup=   -0.000000
1 0.0
2 0.0
3 0.0
4 0.0
5 0.0
6 -0.021936994449280
7 0.0
8 0.0
9 0.32272287465228
10 0.0
11 0.0
12 -0.24894632813033
13 0.0
14 0.0
15 0.0
16 0.0
17 0.0
18 0.0
19 -0.039527410856673
20 0.0
21 0.0
22 0.0
23 0.0
24 0.0
25 0.53726125768251
26 0.0
27 0.0
28 0.0
29 0.0
30 0.0
31 -0.021936993190523
32 0.0
33 0.0
34 0.32272285123035
35 0.0
36 0.0
37 -0.24894630832434
38 0.0
39 0.0
40 0.0
41 0.0
42 0.0
43 0.0
44 0.039527413477366
45 0.0
46 0.0
47 0.0
48 0.0
49 0.0
50 -0.53726125312296
 Sym=     18.1
 Ene=       0.9372
 Spin= Alpha
 Occup=   -0.000000
1 0.0
2 0.0
3 0.0
4 0.0
5 0.0
6 0.0
7 0.0
8 0.0
9 0.0
10 0.0
11 0.0
12 0.0
13 0.0
14 0.0
15 0.0
16 0.0
17 -0.055468385935967
18 0.0
19 0.0
20 0.0
21 0.0
22 0.0
23 0.85860144189740
24 0.0
25 0.0
26 0.0
27 0.0
28 0.0
29 0.0
30 0.0
31 0.0
32 0.0
33 0.0
34 0.0
35 0.0
36 0.0
37 0.0
38 0.0
39 0.0
40 0.0
41 0.0
42 0.055468391022759
43 0.0
44 0.0
45 0.0
46 0.0
47 0.0
48 -0.85860147848665
49 0.0
50 0.0
 Sym=     19.1
 Ene=       0.9372
 Spin= Alpha
 Occup=   -0.000000
1 0.0
2 0.0
3 0.0
4 0.0
5 0.0
6 0.0
7 0.0
8 0.0
9 0.0
10 0.0
11 0.0
12 0.0
13 0.0
14 -0.048037031327467
15 0.048037031327467
16 0.0
17 0.0
18 0.0
19 0.0
20 0.74357066040910
21 -0.74357066040910
22 0.0
23 0.0
24 0.0
25 0.0
26 0.0
27 0.0
28 0.0
29 0.0
30 0.0
31 0.0
32 0.0
33 0.0
34 0.0
35 0.0
36 0.0
37 0.0
38 0.0
39 0.048037035732758
40 -0.048037035732758
41 0.0
42 0.0
43 0.0
44 0.0
45 -0.74357069209632
46 0.74357069209632
47 0.0
48 0.0
49 0.0
50 0.0
 Sym=     20.1
 Ene=       0.9794
 Spin= Alpha
 Occup=   -0.000000
1 -0.20650263385432
2 0.20829460038895
3 5.34384422566003
4 0.74872738573532
5 0.0
6 0.0
7 -0.029461304121930
8 0.0
9 0.0
10 0.11641573019928
11 0.0
12 0.0
13 3.30564227330080
14 0.018978286400572
15 0.018978286400572
16 -0.037956572801144
17 0.0
18 0.0
19 0.0
20 -0.64429393101918
21 -0.64429393101918
22 1.28858786203836
23 0.0
24 0.0
25 0.0
26 0.20651681138962
27 -0.20837447063824
28 -5.34374755193021
29 -0.74875351797202
30 0.0
31 0.0
32 -0.029458434446904
33 0.0
34 0.0
35 0.11635516247711
36 0.0
37 0.0
38 3.30569142620888
39 -0.018979895235398
40 -0.018979895235398
41 0.037959790470796
42 0.0
43 0.0
44 0.0
45 0.64431249210431
46 0.64431249210431
47 -1.28862498420862
48 0.0
49 0.0
50 0.0
 Sym=     21.1
 Ene=       0.9995
 Spin= Alpha
 Occup=   -0.000000
1 0.0
2 0.0
3 0.0
4 0.0
5 -0.040388915971416
6 0.0
7 0.0
8 0.60526604752568
9 0.0
10 0.0
11 -1.11059176506899
12 0.0
13 0.0
14 0.0
15 0.0
16 0.0
17 0.0
18 0.041538493275878
19 0.0
20 0.0
21 0.0
22 0.0
23 0.0
24 -0.88991768668290
25 0.0
26 0.0
27 0.0
28 0.0
29 0.0
30 0.040388880818636
31 0.0
32 0.0
33 -0.60526557185403
34 0.0
35 0.0
36 1.11059156902552
37 0.0
38 0.0
39 0.0
40 0.0
41 0.0
42 0.0
43 0.041538477378255
44 0.0
45 0.0
46 0.0
47 0.0
48 0.0
49 -0.88991748568882
50 0.0
 Sym=     22.1
 Ene=       0.9995
 Spin= Alpha
 Occup=   -0.000000
1 0.0
2 0.0
3 0.0
4 0.0
5 0.0
6 -0.040388915971416
7 0.0
8 0.0
9 0.60526604752569
10 0.0
11 0.0
12 -1.11059176506899
13 0.0
14 0.0
15 0.0
16 0.0
17 0.0
18 0.0
19 0.041538493275878
20 0.0
21 0.0
22 0.0
23 0.0
24 0.0
25 -0.88991768668291
26 0.0
27 0.0
28 0.0
29 0.0
30 0.0
31 0.040388880818636
32 0.0
33 0.0
34 -0.60526557185402
35 0.0
36 0.0
37 1.11059156902552
38 0.0
39 0.0
40 0.0
41 0.0
42 0.0
43 0.0
44 0.041538477378255
45 0.0
46 0.0
47 0.0
48 0.0
49 0.0
50 -0.88991748568881
 Sym=     23.1
 Ene=       1.0238
 Spin= Alpha
 Occup=   -0.000000
1 0.0
2 0.0
3 0.0
4 0.0
5 -0.070813672804094
6 0.0
7 0.0
8 0.87301040865349
9 0.0
10 0.0
11 -0.35942435424924
12 0.0
13 0.0
14 0.0
15 0.0
16 0.0
17 0.0
18 0.027179993845891
19 0.0
20 0.0
21 0.0
22 0.0
23 0.0
24 -0.34896225169959
25 0.0
26 0.0
27 0.0
28 0.0
29 0.0
30 -0.070813695847203
31 0.0
32 0.0
33 0.87301070638276
34 0.0
35 0.0
36 -0.35942497424218
37 0.0
38 0.0
39 0.0
40 0.0
41 0.0
42 0.0
43 -0.027180019035638
44 0.0
45 0.0
46 0.0
47 0.0
48 0.0
49 0.34896279850536
50 0.0
 Sym=     24.1
 Ene=       1.0238
 Spin= Alpha
 Occup=   -0.000000
1 0.0
2 0.0
3 0.0
4 0.0
5 0.0
6 -0.070813672804094
7 0.0
8 0.0
9 0.87301040865349
10 0.0
11 0.0
12 -0.35942435424923
13 0.0
14 0.0
15 0.0
16 0.0
17 0.0
18 0.0
19 0.027179993845890
20 0.0
21 0.0
22 0.0
23 0.0
24 0.0
25 -0.34896225169958
26 0.0
27 0.0
28 0.0
29 0.0
30 0.0
31 -0.070813695847203
32 0.0
33 0.0
34 0.87301070638276
35 0.0
36 0.0
37 -0.35942497424220
38 0.0
39 0.0
40 0.0
41 0.0
42 0.0
43 0.0
44 -0.027180019035639
45 0.0
46 0.0
47 0.0
48 0.0
49 0.0
50 0.34896279850537
 Sym=     25.1
 Ene=       1.1838
 Spin= Alpha
 Occup=   -0.000000
1 -0.095656654427146
2 -0.76115975587199
3 0.19214473312832
4 0.078142164073373
5 0.0
6 0.0
7 0.047346048170127
8 0.0
9 0.0
10 -0.64916630124435
11 0.0
12 0.0
13 0.85037432870086
14 0.041902257767558
15 0.041902257767558
16 -0.083804515535115
17 0.0
18 0.0
19 0.0
20 -0.56617576546099
21 -0.56617576546099
22 1.13235153092198
23 0.0
24 0.0
25 0.0
26 -0.095678984462036
27 -0.76109562342460
28 0.19151267713019
29 0.078119609378660
30 0.0
31 0.0
32 -0.047351643934146
33 0.0
34 0.0
35 0.64924749283329
36 0.0
37 0.0
38 -0.85006430557572
39 0.041900896636026
40 0.041900896636026
41 -0.083801793272052
42 0.0
43 0.0
44 0.0
45 -0.56611611952160
46 -0.56611611952160
47 1.13223223904321
48 0.0
49 0.0
50 0.0
 Sym=     26.1
 Ene=       1.2943
 Spin= Alpha
 Occup=   -0.000000
1 0.0
2 0.0
3 0.0
4 0.0
5 -0.051424006723531
6 0.0
7 0.0
8 0.79910068114783
9 0.0
10 0.0
11 0.35259016357015
12 0.0
13 0.0
14 0.0
15 0.0
16 0.0
17 0.0
18 -0.056746052946721
19 0.0
20 0.0
21 0.0
22 0.0
23 0.0
24 1.15443507991776
25 0.0
26 0.0
27 0.0
28 0.0
29 0.0
30 0.051424013715025
31 0.0
32 0.0
33 -0.79910073117438
34 0.0
35 0.0
36 -0.35259014332937
37 0.0
38 0.0
39 0.0
40 0.0
41 0.0
42 0.0
43 -0.056746055654914
44 0.0
45 0.0
46 0.0
47 0.0
48 0.0
49 1.15443507356582
50 0.0
 Sym=     27.1
 Ene=       1.2943
 Spin= Alpha
 Occup=   -0.000000
1 0.0
2 0.0
3 0.0
4 0.0
5 0.0
6 -0.051424006723531
7 0.0
8 0.0
9 0.79910068114782
10 0.0
11 0.0
12 0.35259016357016
13 0.0
14 0.0
15 0.0
16 0.0
17 0.0
18 0.0
19 -0.056746052946720
20 0.0
21 0.0
22 0.0
23 0.0
24 0.0
25 1.15443507991777
26 0.0
27 0.0
28 0.0
29 0.0
30 0.0
31 0.051424013715026
32 0.0
33 0.0
34 -0.79910073117438
35 0.0
36 0.0
37 -0.35259014332937
38 0.0
39 0.0
40 0.0
41 0.0
42 0.0
43 0.0
44 -0.056746055654914
45 0.0
46 0.0
47 0.0
48 0.0
49 0.0
50 1.15443507356582
 Sym=     28.1
 Ene=       1.7071
 Spin= Alpha
 Occup=   -0.000000
1 0.88071233165974
2 -0.56078943365609
3 5.20155264949548
4 0.073652762209068
5 0.0
6 0.0
7 -0.098830816666883
8 0.0
9 0.0
10 1.73231667372177
11 0.0
12 0.0
13 2.64921151677018
14 0.021452224789507
15 0.021452224789507
16 -0.042904449579014
17 0.0
18 0.0
19 0.0
20 -0.65052811078787
21 -0.65052811078787
22 1.30105622157573
23 0.0
24 0.0
25 0.0
26 -0.88121199015189
27 0.56153626320468
28 -5.20171578412571
29 -0.073591873376134
30 0.0
31 0.0
32 -0.098827401352827
33 0.0
34 0.0
35 1.73234665186178
36 0.0
37 0.0
38 2.64928515663809
39 -0.021455967821096
40 -0.021455967821096
41 0.042911935642192
42 0.0
43 0.0
44 0.0
45 0.65058427794180
46 0.65058427794180
47 -1.30116855588360
48 0.0
49 0.0
50 0.0
 Sym=     29.1
 Ene=       2.2852
 Spin= Alpha
 Occup=   -0.000000
1 4.16286604471059
2 -4.06299769299591
3 -0.40645692133288
4 -0.22826146183984
5 0.0
6 0.0
7 0.002552098726295
8 0.0
9 0.0
10 0.067356482169749
11 0.0
12 0.0
13 0.17765448348008
14 0.011909354581769
15 0.011909354581769
16 -0.023818709163539
17 0.0
18 0.0
19 0.0
20 -0.13615303193919
21 -0.13615303193919
22 0.27230606387838
23 0.0
24 0.0
25 0.0
26 4.16276545936149
27 -4.06306115975016
28 -0.40707235940572
29 -0.22828592419958
30 0.0
31 0.0
32 -0.002576113506731
33 0.0
34 0.0
35 -0.066994195174740
36 0.0
37 0.0
38 -0.17728766292636
39 0.011901604219469
40 0.011901604219469
41 -0.023803208438938
42 0.0
43 0.0
44 0.0
45 -0.13604245214773
46 -0.13604245214773
47 0.27208490429546
48 0.0
49 0.0
50 0.0
 Sym=     30.1
 Ene=       2.9355
 Spin= Alpha
 Occup=   -0.000000
1 4.63498948621922
2 -4.02323718149541
3 -1.71816649993582
4 -0.36305038051900
5 0.0
6 0.0
7 -0.12711847075918
8 0.0
9 0.0
10 -0.49757356873327
11 0.0
12 0.0
13 -0.38275225803724
14 -0.062263640294385
15 -0.062263640294385
16 0.12452728058877
17 0.0
18 0.0
19 0.0
20 0.22748357093460
21 0.22748357093460
22 -0.45496714186920
23 0.0
24 0.0
25 0.0
26 -4.63484915517428
27 4.02312945329470
28 1.71812800416797
29 0.36304654400596
30 0.0
31 0.0
32 -0.12711762766347
33 0.0
34 0.0
35 -0.49757186355252
36 0.0
37 0.0
38 -0.38275285233570
39 0.062264031854766
40 0.062264031854766
41 -0.12452806370953
42 0.0
43 0.0
44 0.0
45 -0.22748526032382
46 -0.22748526032382
47 0.45497052064764
48 0.0
49 0.0
50 0.0
 Sym=     31.1
 Ene=       3.6955
 Spin= Alpha
 Occup=   -0.000000
1 0.026272867409461
2 0.28017554712788
3 -0.045611980036076
4 -0.033076060240754
5 0.0
6 0.0
7 -0.072026331306846
8 0.0
9 0.0
10 0.10303766875768
11 0.0
12 0.0
13 -0.25659149170278
14 -0.39735782539102
15 -0.39735782539102
16 0.79471565078204
17 0.0
18 0.0
19 0.0
20 0.28026166048404
21 0.28026166048404
22 -0.56052332096808
23 0.0
24 0.0
25 0.0
26 0.026270284967376
27 0.28017688057656
28 -0.045616283056139
29 -0.033078962622233
30 0.0
31 0.0
32 0.072025543479887
33 0.0
34 0.0
35 -0.10303453451136
36 0.0
37 0.0
38 0.25659441008907
39 -0.39735788733607
40 -0.39735788733607
41 0.79471577467214
42 0.0
43 0.0
44 0.0
45 0.28026234652372
46 0.28026234652372
47 -0.56052469304744
48 0.0
49 0.0
50 0.0
 Sym=     32.1
 Ene=       3.8495
 Spin= Alpha
 Occup=   -0.000000
1 0.0
2 0.0
3 0.0
4 0.0
5 0.0
6 0.0
7 0.0
8 0.0
9 0.0
10 0.0
11 0.0
12 0.0
13 0.0
14 0.67326038459585
15 -0.67326038459585
16 0.0
17 0.0
18 0.0
19 0.0
20 -0.21965560094803
21 0.21965560094803
22 0.0
23 0.0
24 0.0
25 0.0
26 0.0
27 0.0
28 0.0
29 0.0
30 0.0
31 0.0
32 0.0
33 0.0
34 0.0
35 0.0
36 0.0
37 0.0
38 0.0
39 0.67325965162681
40 -0.67325965162681
41 0.0
42 0.0
43 0.0
44 0.0
45 -0.21965527497235
46 0.21965527497235
47 0.0
48 0.0
49 0.0
50 0.0
 Sym=     33.1
 Ene=       3.8495
 Spin= Alpha
 Occup=   -0.000000
1 0.0
2 0.0
3 0.0
4 0.0
5 0.0
6 0.0
7 0.0
8 0.0
9 0.0
10 0.0
11 0.0
12 0.0
13 0.0
14 0.0
15 0.0
16 0.0
17 0.77741412856226
18 0.0
19 0.0
20 0.0
21 0.0
22 0.0
23 -0.25363644067272
24 0.0
25 0.0
26 0.0
27 0.0
28 0.0
29 0.0
30 0.0
31 0.0
32 0.0
33 0.0
34 0.0
35 0.0
36 0.0
37 0.0
38 0.0
39 0.0
40 0.0
41 0.0
42 0.77741328220250
43 0.0
44 0.0
45 0.0
46 0.0
47 0.0
48 -0.25363606426841
49 0.0
50 0.0
 Sym=     34.1
 Ene=       3.8509
 Spin= Alpha
 Occup=   -0.000000
1 0.0
2 0.0
3 0.0
4 0.0
5 -0.16456552154095
6 0.0
7 0.0
8 0.15442031775838
9 0.0
10 0.0
11 -0.013997675190509
12 0.0
13 0.0
14 0.0
15 0.0
16 0.0
17 0.0
18 0.78286065854817
19 0.0
20 0.0
21 0.0
22 0.0
23 0.0
24 -0.31360976806122
25 0.0
26 0.0
27 0.0
28 0.0
29 0.0
30 -0.16456552932376
31 0.0
32 0.0
33 0.15442033952109
34 0.0
35 0.0
36 -0.013997600276533
37 0.0
38 0.0
39 0.0
40 0.0
41 0.0
42 0.0
43 -0.78286045765621
44 0.0
45 0.0
46 0.0
47 0.0
48 0.0
49 0.31360962889987
50 0.0
 Sym=     35.1
 Ene=       3.8509
 Spin= Alpha
 Occup=   -0.000000
1 0.0
2 0.0
3 0.0
4 0.0
5 0.0
6 -0.16456552154095
7 0.0
8 0.0
9 0.15442031775838
10 0.0
11 0.0
12 -0.013997675190507
13 0.0
14 0.0
15 0.0
16 0.0
17 0.0
18 0.0
19 0.78286065854816
20 0.0
21 0.0
22 0.0
23 0.0
24 0.0
25 -0.31360976806122
26 0.0
27 0.0
28 0.0
29 0.0
30 0.0
31 -0.16456552932376
32 0.0
33 0.0
34 0.15442033952109
35 0.0
36 0.0
37 -0.013997600276537
38 0.0
39 0.0
40 0.0
41 0.0
42 0.0
43 0.0
44 -0.78286045765622
45 0.0
46 0.0
47 0.0
48 0.0
49 0.0
50 0.31360962889987
 Sym=     36.1
 Ene=       3.8961
 Spin= Alpha
 Occup=   -0.000000
1 0.0
2 0.0
3 0.0
4 0.0
5 0.0
6 0.0
7 0.0
8 0.0
9 0.0
10 0.0
11 0.0
12 0.0
13 0.0
14 0.0
15 0.0
16 0.0
17 0.78687044338721
18 0.0
19 0.0
20 0.0
21 0.0
22 0.0
23 -0.34750984207700
24 0.0
25 0.0
26 0.0
27 0.0
28 0.0
29 0.0
30 0.0
31 0.0
32 0.0
33 0.0
34 0.0
35 0.0
36 0.0
37 0.0
38 0.0
39 0.0
40 0.0
41 0.0
42 -0.78687127928748
43 0.0
44 0.0
45 0.0
46 0.0
47 0.0
48 0.34751011327380
49 0.0
50 0.0
 Sym=     37.1
 Ene=       3.8961
 Spin= Alpha
 Occup=   -0.000000
1 0.0
2 0.0
3 0.0
4 0.0
5 0.0
6 0.0
7 0.0
8 0.0
9 0.0
10 0.0
11 0.0
12 0.0
13 0.0
14 0.68144979346046
15 -0.68144979346046
16 0.0
17 0.0
18 0.0
19 0.0
20 -0.30095235130380
21 0.30095235130380
22 0.0
23 0.0
24 0.0
25 0.0
26 0.0
27 0.0
28 0.0
29 0.0
30 0.0
31 0.0
32 0.0
33 0.0
34 0.0
35 0.0
36 0.0
37 0.0
38 0.0
39 -0.68145051737131
40 0.68145051737131
41 0.0
42 0.0
43 0.0
44 0.0
45 0.30095258616712
46 -0.30095258616712
47 0.0
48 0.0
49 0.0
50 0.0
 Sym=     38.1
 Ene=       4.0138
 Spin= Alpha
 Occup=   -0.000000
1 0.0
2 0.0
3 0.0
4 0.0
5 0.0
6 0.065191262903777
7 0.0
8 0.0
9 -0.10410774675089
10 0.0
11 0.0
12 -0.28455796613231
13 0.0
14 0.0
15 0.0
16 0.0
17 0.0
18 0.0
19 0.79637027363689
20 0.0
21 0.0
22 0.0
23 0.0
24 0.0
25 -0.54047693168814
26 0.0
27 0.0
28 0.0
29 0.0
30 0.0
31 -0.065190891375081
32 0.0
33 0.0
34 0.10410748048694
35 0.0
36 0.0
37 0.28455803682762
38 0.0
39 0.0
40 0.0
41 0.0
42 0.0
43 0.0
44 0.79637041862380
45 0.0
46 0.0
47 0.0
48 0.0
49 0.0
50 -0.54047700171927
 Sym=     39.1
 Ene=       4.0138
 Spin= Alpha
 Occup=   -0.000000
1 0.0
2 0.0
3 0.0
4 0.0
5 0.065191262903789
6 0.0
7 0.0
8 -0.10410774675089
9 0.0
10 0.0
11 -0.28455796613231
12 0.0
13 0.0
14 0.0
15 0.0
16 0.0
17 0.0
18 0.79637027363688
19 0.0
20 0.0
21 0.0
22 0.0
23 0.0
24 -0.54047693168814
25 0.0
26 0.0
27 0.0
28 0.0
29 0.0
30 -0.065190891375082
31 0.0
32 0.0
33 0.10410748048694
34 0.0
35 0.0
36 0.28455803682762
37 0.0
38 0.0
39 0.0
40 0.0
41 0.0
42 0.0
43 0.79637041862380
44 0.0
45 0.0
46 0.0
47 0.0
48 0.0
49 -0.54047700171927
50 0.0
 Sym=     40.1
 Ene=       4.0729
 Spin= Alpha
 Occup=   -0.000000
1 0.0
2 0.0
3 0.0
4 0.0
5 0.0
6 0.91408602983552
7 0.0
8 0.0
9 -0.62467211010903
10 0.0
11 0.0
12 0.18258682384942
13 0.0
14 0.0
15 0.0
16 0.0
17 0.0
18 0.0
19 0.14334958539674
20 0.0
21 0.0
22 0.0
23 0.0
24 0.0
25 -0.019696237351541
26 0.0
27 0.0
28 0.0
29 0.0
30 0.0
31 0.91408551515310
32 0.0
33 0.0
34 -0.62467171192722
35 0.0
36 0.0
37 0.18258658498410
38 0.0
39 0.0
40 0.0
41 0.0
42 0.0
43 0.0
44 -0.14334989841069
45 0.0
46 0.0
47 0.0
48 0.0
49 0.0
50 0.019696363502707
 Sym=     41.1
 Ene=       4.0729
 Spin= Alpha
 Occup=   -0.000000
1 0.0
2 0.0
3 0.0
4 0.0
5 0.91408602983550
6 0.0
7 0.0
8 -0.62467211010902
9 0.0
10 0.0
11 0.18258682384942
12 0.0
13 0.0
14 0.0
15 0.0
16 0.0
17 0.0
18 0.14334958539674
19 0.0
20 0.0
21 0.0
22 0.0
23 0.0
24 -0.019696237351535
25 0.0
26 0.0
27 0.0
28 0.0
29 0.0
30 0.91408551515312
31 0.0
32 0.0
33 -0.62467171192723
34 0.0
35 0.0
36 0.18258658498410
37 0.0
38 0.0
39 0.0
40 0.0
41 0.0
42 0.0
43 -0.14334989841069
44 0.0
45 0.0
46 0.0
47 0.0
48 0.0
49 0.019696363502711
50 0.0
 Sym=     42.1
 Ene=       4.1726
 Spin= Alpha
 Occup=   -0.000000
1 0.0
2 0.0
3 0.0
4 0.0
5 0.0
6 0.95552898414724
7 0.0
8 0.0
9 -0.76398514851309
10 0.0
11 0.0
12 0.23752808735014
13 0.0
14 0.0
15 0.0
16 0.0
17 0.0
18 0.0
19 -0.045443199690120
20 0.0
21 0.0
22 0.0
23 0.0
24 0.0
25 -0.12028063228149
26 0.0
27 0.0
28 0.0
29 0.0
30 0.0
31 -0.95552949992153
32 0.0
33 0.0
34 0.76398549837884
35 0.0
36 0.0
37 -0.23752818873534
38 0.0
39 0.0
40 0.0
41 0.0
42 0.0
43 0.0
44 -0.045443126110347
45 0.0
46 0.0
47 0.0
48 0.0
49 0.0
50 -0.12028064161310
 Sym=     43.1
 Ene=       4.1726
 Spin= Alpha
 Occup=   -0.000000
1 0.0
2 0.0
3 0.0
4 0.0
5 0.95552898414725
6 0.0
7 0.0
8 -0.76398514851310
9 0.0
10 0.0
11 0.23752808735015
12 0.0
13 0.0
14 0.0
15 0.0
16 0.0
17 0.0
18 -0.045443199690123
19 0.0
20 0.0
21 0.0
22 0.0
23 0.0
24 -0.12028063228148
25 0.0
26 0.0
27 0.0
28 0.0
29 0.0
30 -0.95552949992152
31 0.0
32 0.0
33 0.76398549837883
34 0.0
35 0.0
36 -0.23752818873534
37 0.0
38 0.0
39 0.0
40 0.0
41 0.0
42 0.0
43 -0.045443126110355
44 0.0
45 0.0
46 0.0
47 0.0
48 0.0
49 -0.12028064161310
50 0.0
 Sym=     44.1
 Ene=       4.2557
 Spin= Alpha
 Occup=   -0.000000
1 0.027524309732858
2 -0.079759039387705
3 -2.61541729013604
4 -0.12436751733438
5 0.0
6 0.0
7 0.59765258608298
8 0.0
9 0.0
10 -0.84553742652213
11 0.0
12 0.0
13 -1.33351650467480
14 -0.32560699540379
15 -0.32560699540379
16 0.65121399080758
17 0.0
18 0.0
19 0.0
20 0.35735617055163
21 0.35735617055163
22 -0.71471234110325
23 0.0
24 0.0
25 0.0
26 -0.027392677266736
27 0.079666357171379
28 2.61537466526020
29 0.12436321502011
30 0.0
31 0.0
32 0.59775260102607
33 0.0
34 0.0
35 -0.84559918830549
36 0.0
37 0.0
38 -1.33349214111695
39 0.32561328591979
40 0.32561328591979
41 -0.65122657183957
42 0.0
43 0.0
44 0.0
45 -0.35736165363335
46 -0.35736165363335
47 0.71472330726670
48 0.0
49 0.0
50 0.0
 Sym=     45.1
 Ene=       4.2809
 Spin= Alpha
 Occup=   -0.000000
1 -0.19729280531135
2 0.25315170903080
3 -0.033250146286118
4 0.034551149471291
5 0.0
6 0.0
7 0.94808968753865
8 0.0
9 0.0
10 -0.63679311251090
11 0.0
12 0.0
13 0.20056251976065
14 -0.061124282302107
15 -0.061124282302107
16 0.12224856460421
17 0.0
18 0.0
19 0.0
20 0.056643836726387
21 0.056643836726387
22 -0.11328767345277
23 0.0
24 0.0
25 0.0
26 -0.19730462618767
27 0.25316046975285
28 -0.032979920044213
29 0.034561416368599
30 0.0
31 0.0
32 -0.94802930364052
33 0.0
34 0.0
35 0.63671665269938
36 0.0
37 0.0
38 -0.20069651715864
39 -0.061089025027561
40 -0.061089025027561
41 0.12217805005512
42 0.0
43 0.0
44 0.0
45 0.056608440609738
46 0.056608440609738
47 -0.11321688121948
48 0.0