[Molden Format]
[Molpro variables]
_NUMVAR=  894.0000000000000    
_AVOGAD= 0.6022136736000000E+24
_BOLTZ= 0.1380658000000000E-22
_CLIGHT=  29979245800.00000    
_EV= 0.3674932379085202E-01
_ENULL= 0.8854187817000000E-11
_KJOULE= 0.3808798324128737E-03
_KJOULE/MOL= 0.3808798324128737E-03
_CM= 0.4556335267302901E-05
_CM-1= 0.4556335267302901E-05
_DEB2SI= 0.3335641000000000E-29
_AMU2AU=  1822.888390000000    
_KCAL= 0.1593601117815568E-02
_KCAL/MOL= 0.1593601117815568E-02
_KELVIN= 0.3166811411060229E-05
_JOULE= 0.4359748200000000E-17
_HERTZ= 0.1519829846004524E-15
_HZ= 0.1519829846004524E-15
_JPCAL=  4.184000000000000    
_PLANCK= 0.6626075540000000E-33
_TOA= 0.5291772109200000    
_TOANG= 0.5291772109200000    
_TORAD= 0.1745329251994330E-01
_TOCM=  219474.6306700000    
_TODEBYE=  2.541580000000000    
_TOE= 0.4803242000000000E-09
_TOEV=  27.21138505000000    
_TOHERTZ=  6579683920729000.    
_TOHZ=  6579683920729000.    
_TOK=  315775.0400000000    
_TOKCAL=  627.5096000000000    
_TOKELVIN=  315775.0400000000    
_TOKJ=  2625.500000000000    
_TOKJOULE=  2625.500000000000    
_TOKG= 0.1660565586000000E-26
_ANG=  1.889726124565062    
_ANGSTROM=  1.889726124565062    
_RPAREF=  0.000000000000000    
_RPADISS=  0.000000000000000    
_IGNORE_UNDEF=  2.000000000000000    
_STRICTCHECK=  0.000000000000000    
_SEW_ONEEL=  0.000000000000000    
_CPPDONE=FALSE
_DKROLL_DONE=  0.000000000000000    
_FOCKDONE=TRUE
_GRADONE=FALSE
_HESSDONE=FALSE
_INTDONE=TRUE
_SCFDONE=TRUE
_MODUL_BLOCK=TRUE
_MODUL_CUDA=FALSE
_MODUL_SLATER=FALSE
_MODUL_MRCC=FALSE
_MODUL_NBO6=FALSE
_MODUL_NECI=TRUE
_MODUL_AIMS=TRUE
_MRCC_EXEC=
_FITC_AO_SAVED=FALSE
_FITC_MO_SAVED=FALSE
_SHARED_FS=TRUE
_LSTYP=SEWARD
_INTYP=INTS
_GEOMTYP=ZMAT
_GRADTYP=ALASKA
_DIRECT=FALSE
_DKHO= -1.000000000000000    
_SYNCM=  0.000000000000000    
_BASIS=F=AVTZ,LI=VTZ
_ZUNIT=ANG
_ZORIENT=  0.000000000000000    
_NELEC=  12.00000000000000    
!SPIN=  0.000000000000000    
_QSDSTEP=  0.000000000000000    
_QSDIRC=  0.000000000000000    
_PROGRAM=MULTI
_CPUSTEP= 0.8600000000000000    
_SYSSTEP= 0.1100000000000000    
_WALLSTEP= 0.9700000000000000    
!DFSCF=  0.000000000000000    
!SCSGRD=  0.000000000000000    
_BASINP=  610.0000000000000    
_CPUTOT=  1.250000000000000    
_DFTEXFAC=  1.000000000000000    
_DMX=  0.000000000000000    
_DMY=  0.000000000000000    
_DMZ= -2.616078174758229    
_DMX_SCF=  0.000000000000000    
_DMY_SCF=  0.000000000000000    
_DMZ_SCF= -2.570399589517699    
_EHOMO=-0.4744156212224527    
_ELUMO=-0.4638930593521115E-02
_EIGS= -26.11408657916299    
_ENERGY= -107.1214813581450    
_ENERGY_METHOD=MULTI
_ENERGY_BASIS=F=AVTZ,LI=VTZ
_GEOMETRY_METHOD=
_GEOMETRY_BASIS=
_ENUC=  9.042901705594938    
_EPS1= -26.31870671695781    
_EPS2=-0.6511490264541239    
_EPS3=-0.6511490258554562    
_EPS4=  2.835258934924549    
_GRADEXFAC=  9999.000000000000    
_GRADMETHOD=TRUE
_NMRMETHOD=  0.000000000000000    
_NMRMAGNET=  0.000000000000000    
!GRID_FREEZE= -1.000000000000000    
_ITERATIONS=  4.000000000000000    
_LASTNELEC=  6.000000000000000    
_LASTSPIN=  0.000000000000000    
_LASTSYM=  1.000000000000000    
_MPP_PROG=  0.000000000000000    
_MSNSTATES=  0.000000000000000    
_RS2PHASE=  0.000000000000000    
_NPROC_MPP=  1.000000000000000    
_NPROC_MPPX=  1.000000000000000    
_NPROC_SMP=  1.000000000000000    
_NUMSTEP=  0.000000000000000    
_ORBITAL=  2140.200000000000    
_PI=  3.141592653589793    
!MCACT=  4.000000000000000    
!MCCLOSED=  3.000000000000000    
!MCFREEZE=  0.000000000000000    
!MCMS2=  0.000000000000000    
!MCNEL=  6.000000000000000    
!MCNSTSYM=  1.000000000000000    
!MCSTATE=  2.000000000000000    
!MCSYM=  1.000000000000000    
!MCWEIGHT= 0.5000000000000000    
_SEIG_MIN= 0.4806399321162989E-03
_SEWPROP=TRUE
_STATUS=  1.000000000000000    
_SYSTOT= 0.3600000000000000    
_VERSION=  2015001.000000000    
_WALLTOT=  1.640000000000000    
_DATE=11-Jul-23
_LASTORB=MCSCF
_MACHINE= 64 bit serial version
_OUTPUT=/scratch/5128323.1.multiway.q/lif-eq-z-sym.xml
_PGROUP=C2v
_TIME=18:21:38
_LIBMOL=/home/lambda/ajmk/chem1721/GroupPrograms/Molpro2015/molpro2015/lib/
_VIGRDC=  0.000000000000000    
!VIBCNT=  0.000000000000000    
!RGHFCNT=  0.000000000000000    
!SURFREC=  0.000000000000000    
!ROTREC=  0.000000000000000    
!POLYREC=  0.000000000000000    
!DIPREC=  0.000000000000000    
!DIP4DREC=  0.000000000000000    
!DIPROT=  0.000000000000000    
!DIP4DROT=  0.000000000000000    
!PTREC=  0.000000000000000    
!PT4DREC=  0.000000000000000    
!VSCFREC=  0.000000000000000    
!VCIREC=  0.000000000000000    
!PVCIREC=  0.000000000000000    
!VMP2REC=  0.000000000000000    
!VMCSCFREC=  0.000000000000000    
!VMRCIREC=  0.000000000000000    
!VIBSTATEREC=  0.000000000000000    
!VIBSTATECNT=  0.000000000000000    
!VIBINFO=  0.000000000000000    
!GAREC=  0.000000000000000    
!SCFORB=  21002.00000000000    
!MCORB=  21402.00000000000    
!NEWMOL= -1.000000000000000    
!NEWSYM= -1.000000000000000    
_SLFILES=slscratch
_NGSSTO=  9.000000000000000    
_SIN=SIN
_COS=COS
_TAN=TAN
_ACOS=ACOS
_ASIN=ASIN
_ATAN=ATAN
_COSH=COSH
_SINH=SINH
_TANH=TANH
_ABS=ABS
_MOD=MOD
_ERF=ERF
_REFC=REFC
_ERFC=ERFC
_HYPOT=HYPOT
_J0=J0
_J1=J1
_JN=JN
_GAMMA=GAMMA
_LGAMMA=LGAMMA
_Y0=Y0
_Y1=Y1
_YN=YN
_EXP=EXP
_LOG=LOG
_LOG10=LOG10
_SQRT=SQRT
_INT=INT
_NINT=NINT
_MAX=MAX
_MIN=MIN
_COSMO=  0.000000000000000    
_COSMOIT=  0.000000000000000    
_COSMOES=  0.000000000000000    
_COSMOEDS=  0.000000000000000    
_COSMOEC=  0.000000000000000    
_COSMOEDCORR=  0.000000000000000    
_FEPSI=  1.000000000000000    
_SL_IsMM=  0.000000000000000    
_SL_NSYM=  4.000000000000000    
_SL_System_BitSw=  0.000000000000000    
_SL_Unique_atoms=  0.000000000000000    
_SL_GRAD=  0.000000000000000    
_SL_MAXUPD_Hess=  5.000000000000000    
_SL_N_PRINT_COD=  5.000000000000000    
_SL_PRINT_CODES=  0.000000000000000    
_SL_BasType=  0.000000000000000    
_SL_Energy_Pred=  0.000000000000000    
_SL_New_Coords=  0.000000000000000    
_SL_Total_Nuclea=  0.000000000000000    
_SL_Highest_Mltp=  0.000000000000000    
_SL_Ref_Geom=  0.000000000000000    
_SL_Symmetry_ope=  1.000000000000000    
_SL_agrad=  0.000000000000000    
_SL_GrdMax=  0.000000000000000    
_SL_GrdNorm=  0.000000000000000    
_SL_GrdRMS=  0.000000000000000    
_SL_Hss_Q=  0.000000000000000    
_SL_Hss_X=  0.000000000000000    
_SL_BMxOld=  0.000000000000000    
_SL_KtB=  0.000000000000000    
_SL_TROld=  0.000000000000000    
_SL_No_of_Intern=  0.000000000000000    
_SL_Hess=  0.000000000000000    
_SL_K=  0.000000000000000    
!LATTICE= -1.000000000000000    
!NEWLATTICE=  0.000000000000000    
!LATGRAD_VAR=FALSE
!SEW_LATTICE=  1.000000000000000    
!LOCAL=  0.000000000000000    
!SAVEDOM= -1.000000000000000    
!RESTDOM= -1.000000000000000    
!SAVEDOM_HF= -1.000000000000000    
!RESTDOM_HF= -1.000000000000000    
!HESSREC=  0.000000000000000    
!FREQREC=  0.000000000000000    
!NMODREC=  0.000000000000000    
!GTASKS=  0.000000000000000    
!HTASKS=  0.000000000000000    
!SAVEDOM_EOM= -1.000000000000000    
!RESTDOM_EOM= -1.000000000000000    
!GRADSTATE= -1.000000000000000    
!THRCHG= 0.1000000000000000    
!DEBUG= -1.000000000000000    
!CFIT_CPHF=  0.000000000000000    
!RDOMAUX_CPHF=  3.000000000000000    
!THRAO_CPHF= 0.1000000000000000E-09
!THRMO_CPHF= 0.1000000000000000E-08
!THROV_CPHF= 0.1000000000000000E-11
!THRSW_CPHF= 0.1000000000000000E-09
!THRPROD_CPHF= 0.1000000000000000E-08
!THRAOPR_CPHF= 0.1000000000000000E-11
!CFIT_SCFGRD=  0.000000000000000    
!RDOMAUX_SCFGRD=  5.000000000000000    
!THRAO_SCFGRD= 0.1000000000000000E-09
!THRMO_SCFGRD= 0.1000000000000000E-08
!THROV_SCFGRD= 0.1000000000000000E-11
!THRSW_SCFGRD= 0.1000000000000000E-09
!THRPROD_SCFGRD= 0.1000000000000000E-08
!THRAOPR_SCFGRD= 0.1000000000000000E-11
!LOCFIT_SCF=  0.000000000000000    
!LOCFIT_MP2= -1.000000000000000    
_RIDOM=  0.000000000000000    
!CC2_METHOD=  0.000000000000000    
_BASIS2006=FALSE
_SVDDEL= -1.000000000000000    
_SVDDELA= -1.000000000000000    
_SVDDELP= -1.000000000000000    
_SVDDELF= -1.000000000000000    
_SVDDELS= -1.000000000000000    
_SVDDEL_ABS= -1.000000000000000    
_SVDDELA_ABS= -1.000000000000000    
_SVDDELP_ABS= -1.000000000000000    
_SVDDELF_ABS= -1.000000000000000    
_SVDDELS_ABS= -1.000000000000000    
_MAXBASIS=  0.000000000000000    
!OPT_CONICAL=  0.000000000000000    
!CLEARSP_JGRID=  0.000000000000000    
_GRDHYBR=  0.000000000000000    
_STATEGRAD=  1.000000000000000    
_4EXT_NDISKS=  1.000000000000000    
!ZMP=  0.000000000000000    
_MAXIT_ZMP=  500.0000000000000    
_MAXDIS_ZMP=  100.0000000000000    
_ACCU_ZMP=  14.00000000000000    
_SHIFTA_ZMP= -100.0000000000000    
!EMBEDFLAG=  1.000000000000000    
!EMBED=FALSE
!EMBED_F12=FALSE
!EMBEDNUC=  0.000000000000000    
_EMBEDENERGY=  0.000000000000000    
_KSPACETIME=  0.000000000000000    
_RSPACETIME=  0.000000000000000    
!EMBED_DFC=FALSE
!NUM_VOIDS=  0.000000000000000    
_IBODY=  0.000000000000000    
_EMBE_TOTAL=  0.000000000000000    
_EMBE_HF=  0.000000000000000    
_EMBE_CORR=  0.000000000000000    
!EMBED_PROJ=FALSE
!EMBED_TRUNC=  0.000000000000000    
!EMB_PROJ_ZMU=  1000000.000000000    
!CORRECTION=  0.000000000000000    
!CORRECTION_HF=  0.000000000000000    
!EMBED_ENERGY=  0.000000000000000    
!EMBED_NAXC=FALSE
!EMBED_AORB=  0.000000000000000    
!EMBED_NACORR=  0.000000000000000    
!EMBED_MP2=FALSE
!EMBED_TRUNC_PERTURBATION=FALSE
!EMBED_FROZEN=  0.000000000000000    
_CHANGE_BASIS=FALSE
_RESTORE_BASIS=FALSE
_FIX_EMBED_GUESS=FALSE
!EDFT=  0.000000000000000    
_IFASTLATGRAD=  0.000000000000000    
_SINDEX=  0.000000000000000    
_AVDOM_OSV=  0.000000000000000    
_AVDOM_PNO=  0.000000000000000    
_AVDOM_PAO=  0.000000000000000    
_AVDOM_LMO=  0.000000000000000    
_CC2OSV_FLAG=  0.000000000000000    
_TMADC2_FLAG=FALSE
_PROPADC2_FLAG=FALSE
_LEN_VirQ=  0.000000000000000    
_GRDCC2LR_FLAG=FALSE
_GRDADC2_FLAG=FALSE
_DMX_CC= -0.000000000000000    
_DMY_CC= -0.000000000000000    
_DMZ_CC= -2.879320698686515    
_DMX_NUC=  0.000000000000000    
_DMY_NUC=  0.000000000000000    
_DMZ_NUC=  8.957301830435998    
GEOMTYP=XYZ
GX1=  0.000000000000000    
GY1=  0.000000000000000    
GZ1=-0.7899999999999999    
GX2=  0.000000000000000    
GY2=  0.000000000000000    
GZ2= 0.7899999999999999    
_TRDMX= -0.000000000000000    
_TRDMY= -0.000000000000000    
_TRDMZ=-0.2460671499916831    
[Atoms] Angs
LI    1    3         0.0000000000        0.0000000000       -0.7900000000
F     2    9         0.0000000000        0.0000000000        0.7900000000
[GTO]
   1 0
 s   11  1.00
  0.5988000000D+04  0.1329999901D-03
  0.8989000000D+03  0.1024999924D-02
  0.2059000000D+03  0.5271999607D-02
  0.5924000000D+02  0.2092899844D-01
  0.1987000000D+02  0.6633999506D-01
  0.7406000000D+01  0.1657749877D+00
  0.2930000000D+01  0.3150379765D+00
  0.1189000000D+01  0.3935229707D+00
  0.4798000000D+00  0.1908699858D+00
  0.7509000000D-01  0.5413999597D-02
  0.2832000000D-01 -0.1327999901D-02
 s   11  1.00
  0.5988000000D+04 -0.2100000605D-04
  0.8989000000D+03 -0.1610000464D-03
  0.2059000000D+03 -0.8200002362D-03
  0.5924000000D+02 -0.3326000958D-02
  0.1987000000D+02 -0.1051900303D-01
  0.7406000000D+01 -0.2809700809D-01
  0.2930000000D+01 -0.5593601611D-01
  0.1189000000D+01 -0.9923702859D-01
  0.4798000000D+00 -0.1121890323D+00
  0.7509000000D-01  0.5678891636D+00
  0.2832000000D-01  0.5303821528D+00
 s   11  1.00
  0.5988000000D+04  0.0000000000D+00
  0.8989000000D+03  0.0000000000D+00
  0.2059000000D+03  0.0000000000D+00
  0.5924000000D+02  0.0000000000D+00
  0.1987000000D+02  0.0000000000D+00
  0.7406000000D+01  0.0000000000D+00
  0.2930000000D+01  0.0000000000D+00
  0.1189000000D+01  0.0000000000D+00
  0.4798000000D+00  0.0000000000D+00
  0.7509000000D-01  0.1000000000D+01
  0.2832000000D-01  0.0000000000D+00
 s   11  1.00
  0.5988000000D+04  0.0000000000D+00
  0.8989000000D+03  0.0000000000D+00
  0.2059000000D+03  0.0000000000D+00
  0.5924000000D+02  0.0000000000D+00
  0.1987000000D+02  0.0000000000D+00
  0.7406000000D+01  0.0000000000D+00
  0.2930000000D+01  0.0000000000D+00
  0.1189000000D+01  0.0000000000D+00
  0.4798000000D+00  0.0000000000D+00
  0.7509000000D-01  0.0000000000D+00
  0.2832000000D-01  0.1000000000D+01
 p    5  1.00
  0.3266000000D+01  0.8630004765D-02
  0.6511000000D+00  0.4753802625D-01
  0.1696000000D+00  0.2097721158D+00
  0.5578000000D-01  0.5285222918D+00
  0.2050000000D-01  0.3827442113D+00
 p    5  1.00
  0.3266000000D+01  0.0000000000D+00
  0.6511000000D+00  0.0000000000D+00
  0.1696000000D+00  0.0000000000D+00
  0.5578000000D-01  0.1000000000D+01
  0.2050000000D-01  0.0000000000D+00
 p    5  1.00
  0.3266000000D+01  0.0000000000D+00
  0.6511000000D+00  0.0000000000D+00
  0.1696000000D+00  0.0000000000D+00
  0.5578000000D-01  0.0000000000D+00
  0.2050000000D-01  0.1000000000D+01
 d    1  1.00
  0.1900000000D+00  0.1000000000D+01
 d    1  1.00
  0.7250000000D-01  0.1000000000D+01
 f    1  1.00
  0.1270000000D+00  0.1000000000D+01
  
   2 0
 s   10  1.00
  0.1950000000D+05  0.5070001688D-03
  0.2923000000D+04  0.3923001306D-02
  0.6645000000D+03  0.2020000673D-01
  0.1875000000D+03  0.7901002631D-01
  0.6062000000D+02  0.2304390767D+00
  0.2142000000D+02  0.4328721441D+00
  0.7950000000D+01  0.3499641165D+00
  0.2257000000D+01  0.4323301440D-01
  0.8815000000D+00 -0.7892002628D-02
  0.3041000000D+00  0.2384000794D-02
 s   10  1.00
  0.1950000000D+05 -0.1169999533D-03
  0.2923000000D+04 -0.9119996360D-03
  0.6645000000D+03 -0.4716998117D-02
  0.1875000000D+03 -0.1908599238D-01
  0.6062000000D+02 -0.5965497619D-01
  0.2142000000D+02 -0.1400099441D+00
  0.7950000000D+01 -0.1767819294D+00
  0.2257000000D+01  0.1716249315D+00
  0.8815000000D+00  0.6050427585D+00
  0.3041000000D+00  0.3695118525D+00
 s   10  1.00
  0.1950000000D+05  0.0000000000D+00
  0.2923000000D+04  0.0000000000D+00
  0.6645000000D+03  0.0000000000D+00
  0.1875000000D+03  0.0000000000D+00
  0.6062000000D+02  0.0000000000D+00
  0.2142000000D+02  0.0000000000D+00
  0.7950000000D+01  0.0000000000D+00
  0.2257000000D+01  0.1000000000D+01
  0.8815000000D+00  0.0000000000D+00
  0.3041000000D+00  0.0000000000D+00
 s   10  1.00
  0.1950000000D+05  0.0000000000D+00
  0.2923000000D+04  0.0000000000D+00
  0.6645000000D+03  0.0000000000D+00
  0.1875000000D+03  0.0000000000D+00
  0.6062000000D+02  0.0000000000D+00
  0.2142000000D+02  0.0000000000D+00
  0.7950000000D+01  0.0000000000D+00
  0.2257000000D+01  0.0000000000D+00
  0.8815000000D+00  0.0000000000D+00
  0.3041000000D+00  0.1000000000D+01
 s    1  1.00
  0.9158000000D-01  0.1000000000D+01
 p    5  1.00
  0.4388000000D+02  0.1666500251D-01
  0.9926000000D+01  0.1044720157D+00
  0.2930000000D+01  0.3172600478D+00
  0.9132000000D+00  0.4873430734D+00
  0.2672000000D+00  0.3346040504D+00
 p    5  1.00
  0.4388000000D+02  0.0000000000D+00
  0.9926000000D+01  0.0000000000D+00
  0.2930000000D+01  0.0000000000D+00
  0.9132000000D+00  0.1000000000D+01
  0.2672000000D+00  0.0000000000D+00
 p    5  1.00
  0.4388000000D+02  0.0000000000D+00
  0.9926000000D+01  0.0000000000D+00
  0.2930000000D+01  0.0000000000D+00
  0.9132000000D+00  0.0000000000D+00
  0.2672000000D+00  0.1000000000D+01
 p    1  1.00
  0.7361000000D-01  0.1000000000D+01
 d    1  1.00
  0.3107000000D+01  0.1000000000D+01
 d    1  1.00
  0.8550000000D+00  0.1000000000D+01
 d    1  1.00
  0.2920000000D+00  0.1000000000D+01
 f    1  1.00
  0.1917000000D+01  0.1000000000D+01
 f    1  1.00
  0.7240000000D+00  0.1000000000D+01


[MO]
 Sym=      1.1
 Ene=     -26.3187
 Spin= Alpha
 Occup=    2.000000
1 0.000597825332890
2 0.002848324485517
3 -0.001405529517789
4 -0.001206441803106
5 0.0
6 0.0
7 -0.003056171474257
8 0.0
9 0.0
10 0.001956990375883
11 0.0
12 0.0
13 0.001109867642905
14 0.000220970373699
15 0.000220970373699
16 -0.000441940747399
17 0.0
18 0.0
19 0.0
20 0.000054682754596
21 0.000054682754596
22 -0.000109365509193
23 0.0
24 0.0
25 0.0
26 0.0
27 0.0
28 -0.000260141732786
29 0.0
30 0.0
31 0.000174508379488
32 0.0
33 0.0
34 0.000174508379488
35 0.0
36 0.99903550352601
37 -0.002422226874105
38 0.000976262841020
39 0.003814678452407
40 -0.001877238964660
41 0.0
42 0.0
43 -0.000468024494911
44 0.0
45 0.0
46 0.000318578689289
47 0.0
48 0.0
49 -0.000480832694261
50 0.0
51 0.0
52 0.000620806513445
53 0.000039375404303
54 0.000039375404303
55 -0.000078750808606
56 0.0
57 0.0
58 0.0
59 0.000025093976023
60 0.000025093976023
61 -0.000050187952047
62 0.0
63 0.0
64 0.0
65 -0.000057850281701
66 -0.000057850281701
67 0.000115700563403
68 0.0
69 0.0
70 0.0
71 0.0
72 0.0
73 0.000034888780842
74 0.0
75 0.0
76 -0.000023404105685
77 0.0
78 0.0
79 -0.000023404105685
80 0.0
81 0.0
82 0.0
83 -0.000092525874217
84 0.0
85 0.0
86 0.000062068243328
87 0.0
88 0.0
89 0.000062068243328
90 0.0
 Sym=      2.1
 Ene=      -2.4692
 Spin= Alpha
 Occup=    2.000000
1 0.99751174987087
2 0.001015914529563
3 -0.012178547687253
4 0.000245004447659
5 0.0
6 0.0
7 -0.033162693424924
8 0.0
9 0.0
10 0.013808870774581
11 0.0
12 0.0
13 0.013114867561462
14 0.001315320313409
15 0.001315320313409
16 -0.002630640626818
17 0.0
18 0.0
19 0.0
20 0.000628858619510
21 0.000628858619510
22 -0.001257717239020
23 0.0
24 0.0
25 0.0
26 0.0
27 0.0
28 -0.000863501518306
29 0.0
30 0.0
31 0.000579254428082
32 0.0
33 0.0
34 0.000579254428082
35 0.0
36 -0.001017655006440
37 0.025388876104129
38 -0.000118561085987
39 0.004061236278705
40 0.010699302754281
41 0.0
42 0.0
43 -0.009839126110999
44 0.0
45 0.0
46 -0.000370837550093
47 0.0
48 0.0
49 -0.003207775935854
50 0.0
51 0.0
52 -0.001686735937598
53 -0.000144644117968
54 -0.000144644117968
55 0.000289288235937
56 0.0
57 0.0
58 0.0
59 -0.000861017734261
60 -0.000861017734261
61 0.001722035468521
62 0.0
63 0.0
64 0.0
65 -0.000581315107406
66 -0.000581315107406
67 0.001162630214812
68 0.0
69 0.0
70 0.0
71 0.0
72 0.0
73 -0.000233650486547
74 0.0
75 0.0
76 0.000156737511268
77 0.0
78 0.0
79 0.000156737511268
80 0.0
81 0.0
82 0.0
83 -0.000641309710500
84 0.0
85 0.0
86 0.000430203632192
87 0.0
88 0.0
89 0.000430203632192
90 0.0
 Sym=      3.1
 Ene=      -1.5489
 Spin= Alpha
 Occup=    2.000000
1 -0.049788895925268
2 0.11194118233583
3 -0.022050066686710
4 -0.058692974440615
5 0.0
6 0.0
7 0.087002630692506
8 0.0
9 0.0
10 -0.025820417153693
11 0.0
12 0.0
13 -0.036897334583470
14 -0.004446675124048
15 -0.004446675124048
16 0.008893350248096
17 0.0
18 0.0
19 0.0
20 -0.003062139777002
21 -0.003062139777002
22 0.006124279554004
23 0.0
24 0.0
25 0.0
26 0.0
27 0.0
28 0.004102321083783
29 0.0
30 0.0
31 -0.002751920642661
32 0.0
33 0.0
34 -0.002751920642661
35 0.0
36 -0.002404622309925
37 0.97828825487375
38 -0.001978583717463
39 0.006760920223507
40 -0.030380013361579
41 0.0
42 0.0
43 -0.026879192089046
44 0.0
45 0.0
46 -0.004470652573796
47 0.0
48 0.0
49 -0.006588297002434
50 0.0
51 0.0
52 0.009618588699463
53 0.000105424726151
54 0.000105424726151
55 -0.000210849452302
56 0.0
57 0.0
58 0.0
59 -0.001776311816818
60 -0.001776311816818
61 0.003552623633636
62 0.0
63 0.0
64 0.0
65 -0.002375438697808
66 -0.002375438697808
67 0.004750877395615
68 0.0
69 0.0
70 0.0
71 0.0
72 0.0
73 0.000428265604636
74 0.0
75 0.0
76 -0.000287289301317
77 0.0
78 0.0
79 -0.000287289301317
80 0.0
81 0.0
82 0.0
83 -0.003362655938684
84 0.0
85 0.0
86 0.002255738179152
87 0.0
88 0.0
89 0.002255738179152
90 0.0
 Sym=      1.2
 Ene=      -0.6511
 Spin= Alpha
 Occup=    1.976856
1 0.0
2 0.0
3 0.0
4 0.0
5 0.14091116780141
6 0.0
7 0.0
8 -0.079972042579253
9 0.0
10 0.0
11 -0.052997178320574
12 0.0
13 0.0
14 0.0
15 0.0
16 0.0
17 0.0
18 0.007529055525163
19 0.0
20 0.0
21 0.0
22 0.0
23 0.0
24 -0.002245167882463
25 0.0
26 0.001513817678742
27 0.0
28 0.0
29 0.000676999847042
30 0.0
31 0.0
32 -0.002707999388166
33 0.0
34 0.0
35 0.0
36 0.0
37 0.0
38 0.0
39 0.0
40 0.0
41 0.95977266888248
42 0.0
43 0.0
44 -0.007645601910516
45 0.0
46 0.0
47 0.028846195826708
48 0.0
49 0.0
50 0.050111730584430
51 0.0
52 0.0
53 0.0
54 0.0
55 0.0
56 0.0
57 -0.000888062550643
58 0.0
59 0.0
60 0.0
61 0.0
62 0.0
63 -0.005959882986010
64 0.0
65 0.0
66 0.0
67 0.0
68 0.0
69 -0.016255350747803
70 0.0
71 -0.000511561392846
72 0.0
73 0.0
74 -0.000228777209814
75 0.0
76 0.0
77 0.000915108839254
78 0.0
79 0.0
80 0.0
81 -0.004126492429374
82 0.0
83 0.0
84 -0.001845423516143
85 0.0
86 0.0
87 0.007381694064574
88 0.0
89 0.0
90 0.0
 Sym=      1.3
 Ene=      -0.6511
 Spin= Alpha
 Occup=    1.976856
1 0.0
2 0.0
3 0.0
4 0.0
5 0.0
6 0.14091117266286
7 0.0
8 0.0
9 -0.079972044116149
10 0.0
11 0.0
12 -0.052997180529631
13 0.0
14 0.0
15 0.0
16 0.0
17 0.0
18 0.0
19 0.007529056008566
20 0.0
21 0.0
22 0.0
23 0.0
24 0.0
25 -0.002245167504048
26 0.0
27 0.001513817449908
28 0.0
29 0.0
30 0.000676999744704
31 0.0
32 0.0
33 -0.002707998978816
34 0.0
35 0.0
36 0.0
37 0.0
38 0.0
39 0.0
40 0.0
41 0.0
42 0.95977266929901
43 0.0
44 0.0
45 -0.007645603157619
46 0.0
47 0.0
48 0.028846194911402
49 0.0
50 0.0
51 0.050111731995546
52 0.0
53 0.0
54 0.0
55 0.0
56 0.0
57 0.0
58 -0.000888062514627
59 0.0
60 0.0
61 0.0
62 0.0
63 0.0
64 -0.005959882980477
65 0.0
66 0.0
67 0.0
68 0.0
69 0.0
70 -0.016255350544748
71 0.0
72 -0.000511561406363
73 0.0
74 0.0
75 -0.000228777215859
76 0.0
77 0.0
78 0.000915108863435
79 0.0
80 0.0
81 0.0
82 -0.004126492405260
83 0.0
84 0.0
85 -0.001845423505359
86 0.0
87 0.0
88 0.007381694021438
89 0.0
90 0.0
 Sym=      4.1
 Ene=      -0.5063
 Spin= Alpha
 Occup=    1.481491
1 0.026893223563437
2 -0.38421901222284
3 0.062105393999950
4 0.21700741670692
5 0.0
6 0.0
7 -0.46093081149167
8 0.0
9 0.0
10 0.16576909440245
11 0.0
12 0.0
13 0.18690816414615
14 0.017620762865605
15 0.017620762865605
16 -0.035241525731210
17 0.0
18 0.0
19 0.0
20 0.014164787222053
21 0.014164787222053
22 -0.028329574444105
23 0.0
24 0.0
25 0.0
26 0.0
27 0.0
28 -0.019433245917198
29 0.0
30 0.0
31 0.013036217668297
32 0.0
33 0.0
34 0.013036217668297
35 0.0
36 0.001497837649153
37 0.061494246301518
38 0.002077192449944
39 0.033972698806677
40 0.15433352345914
41 0.0
42 0.0
43 0.95564689058568
44 0.0
45 0.0
46 -0.002532101381758
47 0.0
48 0.0
49 0.003083113071895
50 0.0
51 0.0
52 0.020971119101764
53 0.000401377825589
54 0.000401377825589
55 -0.000802755651178
56 0.0
57 0.0
58 0.0
59 0.003737206511375
60 0.003737206511375
61 -0.007474413022750
62 0.0
63 0.0
64 0.0
65 0.009553079943371
66 0.009553079943371
67 -0.019106159886743
68 0.0
69 0.0
70 0.0
71 0.0
72 0.0
73 0.001113302129422
74 0.0
75 0.0
76 -0.000746825772265
77 0.0
78 0.0
79 -0.000746825772265
80 0.0
81 0.0
82 0.0
83 0.009339982363639
84 0.0
85 0.0
86 -0.006265450642124
87 0.0
88 0.0
89 -0.006265450642124
90 0.0
 Sym=      5.1
 Ene=      -0.0208
 Spin= Alpha
 Occup=    0.499958
1 0.004313458958029
2 0.85753269174453
3 -0.027888114293619
4 0.17951721459639
5 0.0
6 0.0
7 -0.50272463278982
8 0.0
9 0.0
10 0.11524505603945
11 0.0
12 0.0
13 0.15913529059449
14 0.005167894482385
15 0.005167894482385
16 -0.010335788964769
17 0.0
18 0.0
19 0.0
20 0.003949172290026
21 0.003949172290026
22 -0.007898344580051
23 0.0
24 0.0
25 0.0
26 0.0
27 0.0
28 -0.001947426712013
29 0.0
30 0.0
31 0.001306373552778
32 0.0
33 0.0
34 0.001306373552778
35 0.0
36 -0.002341835141151
37 -0.081001088645577
38 -0.000929015640027
39 -0.045459334522328
40 -0.047715311616563
41 0.0
42 0.0
43 0.029426042154731
44 0.0
45 0.0
46 0.000660293767409
47 0.0
48 0.0
49 0.010565653495087
50 0.0
51 0.0
52 0.012531068199038
53 -0.000297532532768
54 -0.000297532532768
55 0.000595065065536
56 0.0
57 0.0
58 0.0
59 0.000978552468824
60 0.000978552468824
61 -0.001957104937647
62 0.0
63 0.0
64 0.0
65 0.002132036342494
66 0.002132036342494
67 -0.004264072684987
68 0.0
69 0.0
70 0.0
71 0.0
72 0.0
73 -0.000268137988233
74 0.0
75 0.0
76 0.000179872430712
77 0.0
78 0.0
79 0.000179872430712
80 0.0
81 0.0
82 0.0
83 0.001850452883755
84 0.0
85 0.0
86 -0.001241321531171
87 0.0
88 0.0
89 -0.001241321531171
90 0.0
 Sym=      2.3
 Ene=       1.1739
 Spin= Alpha
 Occup=    0.018960
1 0.0
2 0.0
3 0.0
4 0.0
5 0.0
6 0.37531567326817
7 0.0
8 0.0
9 -0.21278064161440
10 0.0
11 0.0
12 -0.14350518880746
13 0.0
14 0.0
15 0.0
16 0.0
17 0.0
18 0.0
19 0.011084411240234
20 0.0
21 0.0
22 0.0
23 0.0
24 0.0
25 -0.005774171586448
26 0.0
27 0.008654600611151
28 0.0
29 0.0
30 0.003870455056929
31 0.0
32 0.0
33 -0.015481820227716
34 0.0
35 0.0
36 0.0
37 0.0
38 0.0
39 0.0
40 0.0
41 0.0
42 -1.56086588411957
43 0.0
44 0.0
45 0.52332770138960
46 0.0
47 0.0
48 1.29907100262984
49 0.0
50 0.0
51 0.15184790401595
52 0.0
53 0.0
54 0.0
55 0.0
56 0.0
57 0.0
58 -0.011134055098295
59 0.0
60 0.0
61 0.0
62 0.0
63 0.0
64 -0.029328802433435
65 0.0
66 0.0
67 0.0
68 0.0
69 0.0
70 -0.063199948108342
71 0.0
72 0.004167324400772
73 0.0
74 0.0
75 0.001863684128884
76 0.0
77 0.0
78 -0.007454736515536
79 0.0
80 0.0
81 0.0
82 -0.003260283077896
83 0.0
84 0.0
85 -0.001458042917614
86 0.0
87 0.0
88 0.005832171670454
89 0.0
90 0.0
 Sym=      2.2
 Ene=       1.1739
 Spin= Alpha
 Occup=    0.018960
1 0.0
2 0.0
3 0.0
4 0.0
5 0.37531565075224
6 0.0
7 0.0
8 -0.21278063452244
9 0.0
10 0.0
11 -0.14350517831073
12 0.0
13 0.0
14 0.0
15 0.0
16 0.0
17 0.0
18 0.011084407933111
19 0.0
20 0.0
21 0.0
22 0.0
23 0.0
24 -0.005774173107332
25 0.0
26 0.008654602205523
27 0.0
28 0.0
29 0.003870455769954
30 0.0
31 0.0
32 -0.015481823079815
33 0.0
34 0.0
35 0.0
36 0.0
37 0.0
38 0.0
39 0.0
40 0.0
41 -1.56086589886706
42 0.0
43 0.0
44 0.52332771397971
45 0.0
46 0.0
47 1.29907101752863
48 0.0
49 0.0
50 0.15184789862599
51 0.0
52 0.0
53 0.0
54 0.0
55 0.0
56 0.0
57 -0.011134054684723
58 0.0
59 0.0
60 0.0
61 0.0
62 0.0
63 -0.029328803449750
64 0.0
65 0.0
66 0.0
67 0.0
68 0.0
69 -0.063199949850301
70 0.0
71 0.004167324270632
72 0.0
73 0.0
74 0.001863684070684
75 0.0
76 0.0
77 -0.007454736282734
78 0.0
79 0.0
80 0.0
81 -0.003260283245039
82 0.0
83 0.0
84 -0.001458042992362
85 0.0
86 0.0
87 0.005832171969448
88 0.0
89 0.0
90 0.0
 Sym=      6.1
 Ene=       1.2249
 Spin= Alpha
 Occup=    0.014660
1 -0.041307695571096
2 -1.03914748770458
3 0.28689207461155
4 0.62822409319764
5 0.0
6 0.0
7 -1.16242356324687
8 0.0
9 0.0
10 0.43852710453279
11 0.0
12 0.0
13 0.46151289060698
14 0.031862933748968
15 0.031862933748968
16 -0.063725867497936
17 0.0
18 0.0
19 0.0
20 0.034485719221703
21 0.034485719221703
22 -0.068971438443406
23 0.0
24 0.0
25 0.0
26 0.0
27 0.0
28 -0.043721075606821
29 0.0
30 0.0
31 0.029328989131878
32 0.0
33 0.0
34 0.029328989131878
35 0.0
36 0.007867283378569
37 0.014042924363986
38 -0.022976594772405
39 0.14786259138505
40 0.30396854683608
41 0.0
42 0.0
43 -1.51480305016125
44 0.0
45 0.0
46 0.46054811809582
47 0.0
48 0.0
49 1.26830535445685
50 0.0
51 0.0
52 0.11541572138343
53 0.007233515142076
54 0.007233515142076
55 -0.014467030284151
56 0.0
57 0.0
58 0.0
59 0.015914682612056
60 0.015914682612056
61 -0.031829365224113
62 0.0
63 0.0
64 0.0
65 0.039167830043215
66 0.039167830043215
67 -0.078335660086430
68 0.0
69 0.0
70 0.0
71 0.0
72 0.0
73 -0.010598407668665
74 0.0
75 0.0
76 0.007109628000117
77 0.0
78 0.0
79 0.007109628000117
80 0.0
81 0.0
82 0.0
83 0.006677784805606
84 0.0
85 0.0
86 -0.004479594229335
87 0.0
88 0.0
89 -0.004479594229335
90 0.0
 Sym=      3.3
 Ene=       2.7862
 Spin= Alpha
 Occup=    0.003154
1 0.0
2 0.0
3 0.0
4 0.0
5 0.0
6 -0.15934286506710
7 0.0
8 0.0
9 0.064445663683236
10 0.0
11 0.0
12 0.061097161338342
13 0.0
14 0.0
15 0.0
16 0.0
17 0.0
18 0.0
19 -0.031709377508074
20 0.0
21 0.0
22 0.0
23 0.0
24 0.0
25 -0.011087363944261
26 0.0
27 0.008447383166870
28 0.0
29 0.0
30 0.003777784598622
31 0.0
32 0.0
33 -0.015111138394487
34 0.0
35 0.0
36 0.0
37 0.0
38 0.0
39 0.0
40 0.0
41 0.0
42 -0.22316082587098
43 0.0
44 0.0
45 0.14669942990779
46 0.0
47 0.0
48 0.16433100474759
49 0.0
50 0.0
51 0.040790936259413
52 0.0
53 0.0
54 0.0
55 0.0
56 0.0
57 0.0
58 0.37521762918304
59 0.0
60 0.0
61 0.0
62 0.0
63 0.0
64 0.68376603702353
65 0.0
66 0.0
67 0.0
68 0.0
69 0.0
70 0.094356349248438
71 0.0
72 -0.000887554075558
73 0.0
74 0.0
75 -0.000396926249331
76 0.0
77 0.0
78 0.001587704997324
79 0.0
80 0.0
81 0.0
82 0.014297093236169
83 0.0
84 0.0
85 0.006393854471345
86 0.0
87 0.0
88 -0.025575417885382
89 0.0
90 0.0
 Sym=      3.2
 Ene=       2.7862
 Spin= Alpha
 Occup=    0.003154
1 0.0
2 0.0
3 0.0
4 0.0
5 -0.15934286241294
6 0.0
7 0.0
8 0.064445662952480
9 0.0
10 0.0
11 0.061097159268462
12 0.0
13 0.0
14 0.0
15 0.0
16 0.0
17 0.0
18 -0.031709377375073
19 0.0
20 0.0
21 0.0
22 0.0
23 0.0
24 -0.011087364140860
25 0.0
26 0.008447383269539
27 0.0
28 0.0
29 0.003777784644537
30 0.0
31 0.0
32 -0.015111138578147
33 0.0
34 0.0
35 0.0
36 0.0
37 0.0
38 0.0
39 0.0
40 0.0
41 -0.22316082232383
42 0.0
43 0.0
44 0.14669942663009
45 0.0
46 0.0
47 0.16433100385188
48 0.0
49 0.0
50 0.040790936084725
51 0.0
52 0.0
53 0.0
54 0.0
55 0.0
56 0.0
57 0.37521762976484
58 0.0
59 0.0
60 0.0
61 0.0
62 0.0
63 0.68376603759399
64 0.0
65 0.0
66 0.0
67 0.0
68 0.0
69 0.094356348055457
70 0.0
71 -0.000887554065973
72 0.0
73 0.0
74 -0.000396926245044
75 0.0
76 0.0
77 0.001587704980178
78 0.0
79 0.0
80 0.0
81 0.014297093018961
82 0.0
83 0.0
84 0.006393854374207
85 0.0
86 0.0
87 -0.025575417496827
88 0.0
89 0.0
90 0.0
 Sym=      7.1
 Ene=       2.8020
 Spin= Alpha
 Occup=    0.002998
1 -0.064160596800300
2 0.027900388873164
3 0.093880536455899
4 -0.004057662863440
5 0.0
6 0.0
7 0.11023456035358
8 0.0
9 0.0
10 -0.036422312620266
11 0.0
12 0.0
13 -0.050731036765787
14 -0.001895689755656
15 -0.001895689755656
16 0.003791379511312
17 0.0
18 0.0
19 0.0
20 -0.001546934395125
21 -0.001546934395125
22 0.003093868790249
23 0.0
24 0.0
25 0.0
26 0.0
27 0.0
28 0.001047475988589
29 0.0
30 0.0
31 -0.000702668254585
32 0.0
33 0.0
34 -0.000702668254585
35 0.0
36 -0.002125923786970
37 -0.044503076103794
38 -0.013024530427716
39 0.068189715482920
40 -0.11328208255555
41 0.0
42 0.0
43 -0.19524126601670
44 0.0
45 0.0
46 0.12599687453172
47 0.0
48 0.0
49 0.13195080391796
50 0.0
51 0.0
52 0.056134690373076
53 -0.18864004322519
54 -0.18864004322519
55 0.37728008645038
56 0.0
57 0.0
58 0.0
59 -0.34282639347707
60 -0.34282639347707
61 0.68565278695414
62 0.0
63 0.0
64 0.0
65 -0.053327951240717
66 -0.053327951240717
67 0.10665590248143
68 0.0