[Molden Format]
[Molpro variables]
_NUMVAR=  894.0000000000000    
_AVOGAD= 0.6022136736000000E+24
_BOLTZ= 0.1380658000000000E-22
_CLIGHT=  29979245800.00000    
_EV= 0.3674932379085202E-01
_ENULL= 0.8854187817000000E-11
_KJOULE= 0.3808798324128737E-03
_KJOULE/MOL= 0.3808798324128737E-03
_CM= 0.4556335267302901E-05
_CM-1= 0.4556335267302901E-05
_DEB2SI= 0.3335641000000000E-29
_AMU2AU=  1822.888390000000    
_KCAL= 0.1593601117815568E-02
_KCAL/MOL= 0.1593601117815568E-02
_KELVIN= 0.3166811411060229E-05
_JOULE= 0.4359748200000000E-17
_HERTZ= 0.1519829846004524E-15
_HZ= 0.1519829846004524E-15
_JPCAL=  4.184000000000000    
_PLANCK= 0.6626075540000000E-33
_TOA= 0.5291772109200000    
_TOANG= 0.5291772109200000    
_TORAD= 0.1745329251994330E-01
_TOCM=  219474.6306700000    
_TODEBYE=  2.541580000000000    
_TOE= 0.4803242000000000E-09
_TOEV=  27.21138505000000    
_TOHERTZ=  6579683920729000.    
_TOHZ=  6579683920729000.    
_TOK=  315775.0400000000    
_TOKCAL=  627.5096000000000    
_TOKELVIN=  315775.0400000000    
_TOKJ=  2625.500000000000    
_TOKJOULE=  2625.500000000000    
_TOKG= 0.1660565586000000E-26
_ANG=  1.889726124565062    
_ANGSTROM=  1.889726124565062    
_RPAREF=  0.000000000000000    
_RPADISS=  0.000000000000000    
_IGNORE_UNDEF=  2.000000000000000    
_STRICTCHECK=  0.000000000000000    
_SEW_ONEEL=  0.000000000000000    
_CPPDONE=FALSE
_DKROLL_DONE=  0.000000000000000    
_FOCKDONE=TRUE
_GRADONE=FALSE
_HESSDONE=FALSE
_INTDONE=TRUE
_SCFDONE=TRUE
_MODUL_BLOCK=TRUE
_MODUL_CUDA=FALSE
_MODUL_SLATER=FALSE
_MODUL_MRCC=FALSE
_MODUL_NBO6=FALSE
_MODUL_NECI=TRUE
_MODUL_AIMS=TRUE
_MRCC_EXEC=
_FITC_AO_SAVED=FALSE
_FITC_MO_SAVED=FALSE
_SHARED_FS=TRUE
_LSTYP=SEWARD
_INTYP=INTS
_GEOMTYP=ZMAT
_GRADTYP=ALASKA
_DIRECT=FALSE
_DKHO= -1.000000000000000    
_SYNCM=  0.000000000000000    
_BASIS=F=AVQZ,LI=VQZ
_ZUNIT=ANG
_ZORIENT=  0.000000000000000    
_NELEC=  12.00000000000000    
!SPIN=  0.000000000000000    
_QSDSTEP=  0.000000000000000    
_QSDIRC=  0.000000000000000    
_PROGRAM=MULTI
_CPUSTEP=  37.55000000000000    
_SYSSTEP=  2.070000000000000    
_WALLSTEP=  39.70000000000000    
!DFSCF=  0.000000000000000    
!SCSGRD=  0.000000000000000    
_BASINP=  610.0000000000000    
_CARTESIAN=TRUE
_CPUTOT=  47.15000000000000    
_DFTEXFAC=  1.000000000000000    
_DMX= 0.2979532632038350E-16
_DMY= 0.7031810764333267E-15
_DMZ= -2.673666757871343    
_DMX_SCF= 0.1411859205959563E-14
_DMY_SCF= 0.1832648657437953E-14
_DMZ_SCF= -2.567448415629428    
_EHOMO=-0.4742858678246118    
_ELUMO=-0.8830816981323816E-02
_EIGS= -26.11033335999134    
_ENERGY= -107.1179457121713    
_ENERGY_METHOD=MULTI
_ENERGY_BASIS=F=AVQZ,LI=VQZ
_GEOMETRY_METHOD=
_GEOMETRY_BASIS=
_ENUC=  9.042901705594938    
_EPS1= -26.41017751901931    
_GRADEXFAC=  9999.000000000000    
_GRADMETHOD=TRUE
_NMRMETHOD=  0.000000000000000    
_NMRMAGNET=  0.000000000000000    
!GRID_FREEZE= -1.000000000000000    
_ITERATIONS=  6.000000000000000    
_LASTNELEC=  6.000000000000000    
_LASTSPIN=  0.000000000000000    
_LASTSYM=  1.000000000000000    
_MPP_PROG=  0.000000000000000    
_MSNSTATES=  0.000000000000000    
_RS2PHASE=  0.000000000000000    
_NPROC_MPP=  1.000000000000000    
_NPROC_MPPX=  1.000000000000000    
_NPROC_SMP=  1.000000000000000    
_NUMSTEP=  0.000000000000000    
_ORBITAL=  2140.200000000000    
_PI=  3.141592653589793    
!MCACT=  11.00000000000000    
!MCCLOSED=  3.000000000000000    
!MCFREEZE=  0.000000000000000    
!MCMS2=  0.000000000000000    
!MCNEL=  6.000000000000000    
!MCNSTSYM=  1.000000000000000    
!MCSTATE=  4.000000000000000    
!MCSYM=  1.000000000000000    
!MCWEIGHT= 0.2500000000000000    
_SEIG_MIN= 0.4013202170647751E-05
_SEWPROP=TRUE
_STATUS=  1.000000000000000    
_SYSTOT=  3.160000000000000    
_VERSION=  2015001.000000000    
_WALLTOT=  50.43000000000000    
_DATE=13-Jul-23
_LASTORB=MCSCF
_MACHINE= 64 bit serial version
_OUTPUT=/scratch/5142380.1.multiway.q/lif-cartesian.xml
_PGROUP=C1
_TIME=18:23:11
_LIBMOL=/home/lambda/ajmk/chem1721/GroupPrograms/Molpro2015/molpro2015/lib/
_VIGRDC=  0.000000000000000    
!VIBCNT=  0.000000000000000    
!RGHFCNT=  0.000000000000000    
!SURFREC=  0.000000000000000    
!ROTREC=  0.000000000000000    
!POLYREC=  0.000000000000000    
!DIPREC=  0.000000000000000    
!DIP4DREC=  0.000000000000000    
!DIPROT=  0.000000000000000    
!DIP4DROT=  0.000000000000000    
!PTREC=  0.000000000000000    
!PT4DREC=  0.000000000000000    
!VSCFREC=  0.000000000000000    
!VCIREC=  0.000000000000000    
!PVCIREC=  0.000000000000000    
!VMP2REC=  0.000000000000000    
!VMCSCFREC=  0.000000000000000    
!VMRCIREC=  0.000000000000000    
!VIBSTATEREC=  0.000000000000000    
!VIBSTATECNT=  0.000000000000000    
!VIBINFO=  0.000000000000000    
!GAREC=  0.000000000000000    
!SCFORB=  21002.00000000000    
!MCORB=  21402.00000000000    
!NEWMOL= -1.000000000000000    
!NEWSYM= -1.000000000000000    
_SLFILES=slscratch
_NGSSTO=  9.000000000000000    
_SIN=SIN
_COS=COS
_TAN=TAN
_ACOS=ACOS
_ASIN=ASIN
_ATAN=ATAN
_COSH=COSH
_SINH=SINH
_TANH=TANH
_ABS=ABS
_MOD=MOD
_ERF=ERF
_REFC=REFC
_ERFC=ERFC
_HYPOT=HYPOT
_J0=J0
_J1=J1
_JN=JN
_GAMMA=GAMMA
_LGAMMA=LGAMMA
_Y0=Y0
_Y1=Y1
_YN=YN
_EXP=EXP
_LOG=LOG
_LOG10=LOG10
_SQRT=SQRT
_INT=INT
_NINT=NINT
_MAX=MAX
_MIN=MIN
_COSMO=  0.000000000000000    
_COSMOIT=  0.000000000000000    
_COSMOES=  0.000000000000000    
_COSMOEDS=  0.000000000000000    
_COSMOEC=  0.000000000000000    
_COSMOEDCORR=  0.000000000000000    
_FEPSI=  1.000000000000000    
_SL_IsMM=  0.000000000000000    
_SL_NSYM=  1.000000000000000    
_SL_System_BitSw=  0.000000000000000    
_SL_Unique_atoms=  0.000000000000000    
_SL_GRAD=  0.000000000000000    
_SL_MAXUPD_Hess=  5.000000000000000    
_SL_N_PRINT_COD=  5.000000000000000    
_SL_PRINT_CODES=  0.000000000000000    
_SL_BasType=  0.000000000000000    
_SL_Energy_Pred=  0.000000000000000    
_SL_New_Coords=  0.000000000000000    
_SL_Total_Nuclea=  0.000000000000000    
_SL_Highest_Mltp=  0.000000000000000    
_SL_Ref_Geom=  0.000000000000000    
_SL_Symmetry_ope=  1.000000000000000    
_SL_agrad=  0.000000000000000    
_SL_GrdMax=  0.000000000000000    
_SL_GrdNorm=  0.000000000000000    
_SL_GrdRMS=  0.000000000000000    
_SL_Hss_Q=  0.000000000000000    
_SL_Hss_X=  0.000000000000000    
_SL_BMxOld=  0.000000000000000    
_SL_KtB=  0.000000000000000    
_SL_TROld=  0.000000000000000    
_SL_No_of_Intern=  0.000000000000000    
_SL_Hess=  0.000000000000000    
_SL_K=  0.000000000000000    
!LATTICE= -1.000000000000000    
!NEWLATTICE=  0.000000000000000    
!LATGRAD_VAR=FALSE
!SEW_LATTICE=  1.000000000000000    
!LOCAL=  0.000000000000000    
!SAVEDOM= -1.000000000000000    
!RESTDOM= -1.000000000000000    
!SAVEDOM_HF= -1.000000000000000    
!RESTDOM_HF= -1.000000000000000    
!HESSREC=  0.000000000000000    
!FREQREC=  0.000000000000000    
!NMODREC=  0.000000000000000    
!GTASKS=  0.000000000000000    
!HTASKS=  0.000000000000000    
!SAVEDOM_EOM= -1.000000000000000    
!RESTDOM_EOM= -1.000000000000000    
!GRADSTATE= -1.000000000000000    
!THRCHG= 0.1000000000000000    
!DEBUG= -1.000000000000000    
!CFIT_CPHF=  0.000000000000000    
!RDOMAUX_CPHF=  3.000000000000000    
!THRAO_CPHF= 0.1000000000000000E-09
!THRMO_CPHF= 0.1000000000000000E-08
!THROV_CPHF= 0.1000000000000000E-11
!THRSW_CPHF= 0.1000000000000000E-09
!THRPROD_CPHF= 0.1000000000000000E-08
!THRAOPR_CPHF= 0.1000000000000000E-11
!CFIT_SCFGRD=  0.000000000000000    
!RDOMAUX_SCFGRD=  5.000000000000000    
!THRAO_SCFGRD= 0.1000000000000000E-09
!THRMO_SCFGRD= 0.1000000000000000E-08
!THROV_SCFGRD= 0.1000000000000000E-11
!THRSW_SCFGRD= 0.1000000000000000E-09
!THRPROD_SCFGRD= 0.1000000000000000E-08
!THRAOPR_SCFGRD= 0.1000000000000000E-11
!LOCFIT_SCF=  0.000000000000000    
!LOCFIT_MP2= -1.000000000000000    
_RIDOM=  0.000000000000000    
!CC2_METHOD=  0.000000000000000    
_BASIS2006=FALSE
_SVDDEL= -1.000000000000000    
_SVDDELA= -1.000000000000000    
_SVDDELP= -1.000000000000000    
_SVDDELF= -1.000000000000000    
_SVDDELS= -1.000000000000000    
_SVDDEL_ABS= -1.000000000000000    
_SVDDELA_ABS= -1.000000000000000    
_SVDDELP_ABS= -1.000000000000000    
_SVDDELF_ABS= -1.000000000000000    
_SVDDELS_ABS= -1.000000000000000    
_MAXBASIS=  0.000000000000000    
!OPT_CONICAL=  0.000000000000000    
!CLEARSP_JGRID=  0.000000000000000    
_GRDHYBR=  0.000000000000000    
_STATEGRAD=  1.000000000000000    
_4EXT_NDISKS=  1.000000000000000    
!ZMP=  0.000000000000000    
_MAXIT_ZMP=  500.0000000000000    
_MAXDIS_ZMP=  100.0000000000000    
_ACCU_ZMP=  14.00000000000000    
_SHIFTA_ZMP= -100.0000000000000    
!EMBEDFLAG=  1.000000000000000    
!EMBED=FALSE
!EMBED_F12=FALSE
!EMBEDNUC=  0.000000000000000    
_EMBEDENERGY=  0.000000000000000    
_KSPACETIME=  0.000000000000000    
_RSPACETIME=  0.000000000000000    
!EMBED_DFC=FALSE
!NUM_VOIDS=  0.000000000000000    
_IBODY=  0.000000000000000    
_EMBE_TOTAL=  0.000000000000000    
_EMBE_HF=  0.000000000000000    
_EMBE_CORR=  0.000000000000000    
!EMBED_PROJ=FALSE
!EMBED_TRUNC=  0.000000000000000    
!EMB_PROJ_ZMU=  1000000.000000000    
!CORRECTION=  0.000000000000000    
!CORRECTION_HF=  0.000000000000000    
!EMBED_ENERGY=  0.000000000000000    
!EMBED_NAXC=FALSE
!EMBED_AORB=  0.000000000000000    
!EMBED_NACORR=  0.000000000000000    
!EMBED_MP2=FALSE
!EMBED_TRUNC_PERTURBATION=FALSE
!EMBED_FROZEN=  0.000000000000000    
_CHANGE_BASIS=FALSE
_RESTORE_BASIS=FALSE
_FIX_EMBED_GUESS=FALSE
!EDFT=  0.000000000000000    
_IFASTLATGRAD=  0.000000000000000    
_SINDEX=  0.000000000000000    
_AVDOM_OSV=  0.000000000000000    
_AVDOM_PNO=  0.000000000000000    
_AVDOM_PAO=  0.000000000000000    
_AVDOM_LMO=  0.000000000000000    
_CC2OSV_FLAG=  0.000000000000000    
_TMADC2_FLAG=FALSE
_PROPADC2_FLAG=FALSE
_LEN_VirQ=  0.000000000000000    
_GRDCC2LR_FLAG=FALSE
_GRDADC2_FLAG=FALSE
_DMX_CC=-0.9519704950215601E-19
_DMY_CC=-0.9519723056926658E-19
_DMZ_CC= -2.886610116200494    
_DMX_NUC=  0.000000000000000    
_DMY_NUC=  0.000000000000000    
_DMZ_NUC=  8.957301830435998    
GEOMTYP=XYZ
GX1=  0.000000000000000    
GY1=  0.000000000000000    
GZ1=-0.7899999999999999    
GX2=  0.000000000000000    
GY2=  0.000000000000000    
GZ2= 0.7899999999999999    
_TRDMX=-0.2961087192301258    
_TRDMY=-0.5015329013967043E-08
_TRDMZ=-0.1645952503079190E-13
[Atoms] Angs
LI    1    3         0.0000000000        0.0000000000       -0.7900000000
F     2    9         0.0000000000        0.0000000000        0.7900000000
[GTO]
   1 0
 s   12  1.00
  0.6601000000D+04  0.1169999349D-03
  0.9897000000D+03  0.9109994932D-03
  0.2257000000D+03  0.4727997370D-02
  0.6429000000D+02  0.1919698932D-01
  0.2118000000D+02  0.6304696492D-01
  0.7724000000D+01  0.1632079092D+00
  0.3003000000D+01  0.3148268248D+00
  0.1212000000D+01  0.3939357808D+00
  0.4930000000D+00  0.1969178904D+00
  0.9515000000D-01  0.9996994438D-02
  0.4791000000D-01 -0.5401996995D-02
  0.2220000000D-01  0.1703999052D-02
 s   12  1.00
  0.6601000000D+04 -0.1799999437D-04
  0.9897000000D+03 -0.1419999556D-03
  0.2257000000D+03 -0.7409997681D-03
  0.6429000000D+02 -0.3019999055D-02
  0.2118000000D+02 -0.1012299683D-01
  0.7724000000D+01 -0.2709399152D-01
  0.3003000000D+01 -0.5735898205D-01
  0.1212000000D+01 -0.9389497062D-01
  0.4930000000D+00 -0.1210909621D+00
  0.9515000000D-01  0.2766079135D+00
  0.4791000000D-01  0.5495478281D+00
  0.2220000000D-01  0.2773849132D+00
 s   12  1.00
  0.6601000000D+04  0.0000000000D+00
  0.9897000000D+03  0.0000000000D+00
  0.2257000000D+03  0.0000000000D+00
  0.6429000000D+02  0.0000000000D+00
  0.2118000000D+02  0.0000000000D+00
  0.7724000000D+01  0.0000000000D+00
  0.3003000000D+01  0.0000000000D+00
  0.1212000000D+01  0.0000000000D+00
  0.4930000000D+00  0.0000000000D+00
  0.9515000000D-01  0.1000000000D+01
  0.4791000000D-01  0.0000000000D+00
  0.2220000000D-01  0.0000000000D+00
 s   12  1.00
  0.6601000000D+04  0.0000000000D+00
  0.9897000000D+03  0.0000000000D+00
  0.2257000000D+03  0.0000000000D+00
  0.6429000000D+02  0.0000000000D+00
  0.2118000000D+02  0.0000000000D+00
  0.7724000000D+01  0.0000000000D+00
  0.3003000000D+01  0.0000000000D+00
  0.1212000000D+01  0.0000000000D+00
  0.4930000000D+00  0.0000000000D+00
  0.9515000000D-01  0.0000000000D+00
  0.4791000000D-01  0.1000000000D+01
  0.2220000000D-01  0.0000000000D+00
 s   12  1.00
  0.6601000000D+04  0.0000000000D+00
  0.9897000000D+03  0.0000000000D+00
  0.2257000000D+03  0.0000000000D+00
  0.6429000000D+02  0.0000000000D+00
  0.2118000000D+02  0.0000000000D+00
  0.7724000000D+01  0.0000000000D+00
  0.3003000000D+01  0.0000000000D+00
  0.1212000000D+01  0.0000000000D+00
  0.4930000000D+00  0.0000000000D+00
  0.9515000000D-01  0.0000000000D+00
  0.4791000000D-01  0.0000000000D+00
  0.2220000000D-01  0.1000000000D+01
 p    6  1.00
  0.6250000000D+01  0.3388000602D-02
  0.1370000000D+01  0.1931600343D-01
  0.3672000000D+00  0.7910401407D-01
  0.1192000000D+00  0.2740950487D+00
  0.4474000000D-01  0.5194880924D+00
  0.1795000000D-01  0.2844230506D+00
 p    6  1.00
  0.6250000000D+01  0.0000000000D+00
  0.1370000000D+01  0.0000000000D+00
  0.3672000000D+00  0.0000000000D+00
  0.1192000000D+00  0.1000000000D+01
  0.4474000000D-01  0.0000000000D+00
  0.1795000000D-01  0.0000000000D+00
 p    6  1.00
  0.6250000000D+01  0.0000000000D+00
  0.1370000000D+01  0.0000000000D+00
  0.3672000000D+00  0.0000000000D+00
  0.1192000000D+00  0.0000000000D+00
  0.4474000000D-01  0.1000000000D+01
  0.1795000000D-01  0.0000000000D+00
 p    6  1.00
  0.6250000000D+01  0.0000000000D+00
  0.1370000000D+01  0.0000000000D+00
  0.3672000000D+00  0.0000000000D+00
  0.1192000000D+00  0.0000000000D+00
  0.4474000000D-01  0.0000000000D+00
  0.1795000000D-01  0.1000000000D+01
 d    1  1.00
  0.3352000000D+00  0.1000000000D+01
 d    1  1.00
  0.1482000000D+00  0.1000000000D+01
 d    1  1.00
  0.6560000000D-01  0.1000000000D+01
 f    1  1.00
  0.2280000000D+00  0.1000000000D+01
 f    1  1.00
  0.1135000000D+00  0.1000000000D+01
 g    1  1.00
  0.2319000000D+00  0.1000000000D+01
  
   2 0
 s   12  1.00
  0.7453000000D+05  0.9500010373D-04
  0.1117000000D+05  0.7380008058D-03
  0.2543000000D+04  0.3858004212D-02
  0.7210000000D+03  0.1592601739D-01
  0.2359000000D+03  0.5428905928D-01
  0.8560000000D+02  0.1495131632D+00
  0.3355000000D+02  0.3082523366D+00
  0.1393000000D+02  0.3948534311D+00
  0.5915000000D+01  0.2110312304D+00
  0.1843000000D+01  0.1715101873D-01
  0.7124000000D+00 -0.2015002200D-02
  0.2637000000D+00  0.8690009488D-03
 s   12  1.00
  0.7453000000D+05 -0.2199999390D-04
  0.1117000000D+05 -0.1719999523D-03
  0.2543000000D+04 -0.8909997530D-03
  0.7210000000D+03 -0.3747998961D-02
  0.2359000000D+03 -0.1286199643D-01
  0.8560000000D+02 -0.3806098945D-01
  0.3355000000D+02 -0.8623897609D-01
  0.1393000000D+02 -0.1558649568D+00
  0.5915000000D+01 -0.1109139693D+00
  0.1843000000D+01  0.2987609172D+00
  0.7124000000D+00  0.5850128378D+00
  0.2637000000D+00  0.2711589248D+00
 s   12  1.00
  0.7453000000D+05  0.0000000000D+00
  0.1117000000D+05  0.0000000000D+00
  0.2543000000D+04  0.0000000000D+00
  0.7210000000D+03  0.0000000000D+00
  0.2359000000D+03  0.0000000000D+00
  0.8560000000D+02  0.0000000000D+00
  0.3355000000D+02  0.0000000000D+00
  0.1393000000D+02  0.0000000000D+00
  0.5915000000D+01  0.0000000000D+00
  0.1843000000D+01  0.1000000000D+01
  0.7124000000D+00  0.0000000000D+00
  0.2637000000D+00  0.0000000000D+00
 s   12  1.00
  0.7453000000D+05  0.0000000000D+00
  0.1117000000D+05  0.0000000000D+00
  0.2543000000D+04  0.0000000000D+00
  0.7210000000D+03  0.0000000000D+00
  0.2359000000D+03  0.0000000000D+00
  0.8560000000D+02  0.0000000000D+00
  0.3355000000D+02  0.0000000000D+00
  0.1393000000D+02  0.0000000000D+00
  0.5915000000D+01  0.0000000000D+00
  0.1843000000D+01  0.0000000000D+00
  0.7124000000D+00  0.1000000000D+01
  0.2637000000D+00  0.0000000000D+00
 s   12  1.00
  0.7453000000D+05  0.0000000000D+00
  0.1117000000D+05  0.0000000000D+00
  0.2543000000D+04  0.0000000000D+00
  0.7210000000D+03  0.0000000000D+00
  0.2359000000D+03  0.0000000000D+00
  0.8560000000D+02  0.0000000000D+00
  0.3355000000D+02  0.0000000000D+00
  0.1393000000D+02  0.0000000000D+00
  0.5915000000D+01  0.0000000000D+00
  0.1843000000D+01  0.0000000000D+00
  0.7124000000D+00  0.0000000000D+00
  0.2637000000D+00  0.1000000000D+01
 s    1  1.00
  0.8594000000D-01  0.1000000000D+01
 p    6  1.00
  0.8039000000D+02  0.6346999640D-02
  0.1863000000D+02  0.4420399749D-01
  0.5694000000D+01  0.1685139904D+00
  0.1953000000D+01  0.3615629795D+00
  0.6702000000D+00  0.4421779749D+00
  0.2166000000D+00  0.2434349862D+00
 p    6  1.00
  0.8039000000D+02  0.0000000000D+00
  0.1863000000D+02  0.0000000000D+00
  0.5694000000D+01  0.0000000000D+00
  0.1953000000D+01  0.1000000000D+01
  0.6702000000D+00  0.0000000000D+00
  0.2166000000D+00  0.0000000000D+00
 p    6  1.00
  0.8039000000D+02  0.0000000000D+00
  0.1863000000D+02  0.0000000000D+00
  0.5694000000D+01  0.0000000000D+00
  0.1953000000D+01  0.0000000000D+00
  0.6702000000D+00  0.1000000000D+01
  0.2166000000D+00  0.0000000000D+00
 p    6  1.00
  0.8039000000D+02  0.0000000000D+00
  0.1863000000D+02  0.0000000000D+00
  0.5694000000D+01  0.0000000000D+00
  0.1953000000D+01  0.0000000000D+00
  0.6702000000D+00  0.0000000000D+00
  0.2166000000D+00  0.1000000000D+01
 p    1  1.00
  0.6568000000D-01  0.1000000000D+01
 d    1  1.00
  0.5014000000D+01  0.1000000000D+01
 d    1  1.00
  0.1725000000D+01  0.1000000000D+01
 d    1  1.00
  0.5860000000D+00  0.1000000000D+01
 d    1  1.00
  0.2070000000D+00  0.1000000000D+01
 f    1  1.00
  0.3562000000D+01  0.1000000000D+01
 f    1  1.00
  0.1148000000D+01  0.1000000000D+01
 f    1  1.00
  0.4600000000D+00  0.1000000000D+01
 g    1  1.00
  0.2376000000D+01  0.1000000000D+01
 g    1  1.00
  0.9240000000D+00  0.1000000000D+01


[MO]
 Sym=      1.1
 Ene=     -26.4102
 Spin= Alpha
 Occup=    2.000000
1 -0.000001724279712
2 0.000065857603936
3 -0.000817558168109
4 0.000607903795291
5 -0.000034325058026
6 0.0
7 0.0
8 0.000204587883492
9 0.0
10 0.0
11 0.000034350074092
12 0.0
13 0.0
14 -0.000248289806028
15 0.0
16 0.0
17 -0.000037956220999
18 -0.000014991085491
19 -0.000014991095614
20 0.000104586400628
21 0.0
22 0.0
23 0.0
24 -0.000053391926305
25 -0.000053391845192
26 -0.000124417425934
27 0.0
28 0.0
29 0.0
30 -0.000192120285895
31 -0.000192120247557
32 -0.000329079374113
33 0.0
34 0.0
35 0.0
36 0.0
37 0.0
38 -0.000007138610451
39 0.0
40 0.0
41 -0.000057225486641
42 0.0
43 0.0
44 -0.000057225525972
45 0.0
46 0.0
47 0.0
48 -0.000171577206682
49 0.0
50 0.0
51 -0.000041902681672
52 0.0
53 0.0
54 -0.000041902612208
55 0.0
56 0.000009742669260
57 0.000009742638959
58 0.000045029467503
59 0.0
60 0.0
61 0.0
62 0.0
63 0.0
64 0.0
65 0.000005680309011
66 0.000003383003425
67 0.000003382973309
68 0.0
69 0.0
70 0.0
71 1.00137556198628
72 0.005573169830197
73 0.000545145721138
74 -0.004757226810075
75 0.001416461544142
76 0.001305362839657
77 0.0
78 0.0
79 -0.001136107795096
80 0.0
81 0.0
82 0.000589227141077
83 0.0
84 0.0
85 0.000395912739636
86 0.0
87 0.0
88 0.000005219583390
89 0.0
90 0.0
91 -0.000146638939172
92 -0.000803964419430
93 -0.000803965646221
94 -0.000789808444589
95 0.0
96 0.0
97 0.0
98 0.001210426209873
99 0.001210431442404
100 0.001233994061067
101 0.0
102 0.0
103 0.0
104 -0.002350038087331
105 -0.002350037266148
106 -0.002683969404185
107 0.0
108 0.0
109 0.0
110 -0.000442343702754
111 -0.000442343930860
112 -0.000400178218718
113 0.0
114 0.0
115 0.0
116 0.0
117 0.0
118 -0.000071816985900
119 0.0
120 0.0
121 -0.000029360084124
122 0.0
123 0.0
124 -0.000029360122226
125 0.0
126 0.0
127 0.0
128 0.000014366370197
129 0.0
130 0.0
131 0.000011306681568
132 0.0
133 0.0
134 0.000011306728977
135 0.0
136 0.0
137 0.0
138 0.000184781784781
139 0.0
140 0.0
141 0.000065398718059
142 0.0
143 0.0
144 0.000065398719774
145 0.0
146 -0.000879804494040
147 -0.000879808019498
148 -0.000851209306476
149 0.0
150 0.0
151 0.0
152 0.0
153 0.0
154 0.0
155 -0.000516726369989
156 -0.000509398944642
157 -0.000509399952757
158 0.0
159 0.0
160 0.0
161 0.001149184418401
162 0.001149183404580
163 0.001317191391746
164 0.0
165 0.0
166 0.0
167 0.0
168 0.0
169 0.0
170 0.000672282447519
171 0.000727329301929
172 0.000727328983013
173 0.0
174 0.0
175 0.0
 Sym=      2.1
 Ene=      -2.4703
 Spin= Alpha
 Occup=    2.000000
1 1.00163646865802
2 0.025537181001498
3 0.015350910621236
4 -0.024688479331993
5 -0.008063847231579
6 0.0
7 0.0
8 0.010448195096068
9 0.0
10 0.0
11 -0.002992782505571
12 0.0
13 0.0
14 -0.005531686790343
15 0.0
16 0.0
17 -0.002965679048112
18 -0.000370894280362
19 -0.000370894371464
20 0.000232641395909
21 0.0
22 0.0
23 0.0
24 -0.009950952783252
25 -0.009950948827258
26 -0.010654796845615
27 0.0
28 0.0
29 0.0
30 0.003211039520726
31 0.003211039189120
32 0.003425320068089
33 0.0
34 0.0
35 0.0
36 0.0
37 0.0
38 0.001443894222703
39 0.0
40 0.0
41 0.000358008980107
42 0.0
43 0.0
44 0.000358008749524
45 0.0
46 0.0
47 0.0
48 0.000169230547177
49 0.0
50 0.0
51 -0.000056210075858
52 0.0
53 0.0
54 -0.000056209539885
55 0.0
56 0.003254026478801
57 0.003254024125994
58 0.004810168881101
59 0.0
60 0.0
61 0.0
62 0.0
63 0.0
64 0.0
65 0.001905202772849
66 0.002348436554018
67 0.002348435801938
68 0.0
69 0.0
70 0.0
71 -0.000446042019762
72 0.030816286214366
73 -0.000158274533187
74 0.000580966395793
75 -0.007486487855857
76 0.000440341165766
77 0.0
78 0.0
79 -0.009344954392983
80 0.0
81 0.0
82 0.000454725264239
83 0.0
84 0.0
85 -0.000309507714119
86 0.0
87 0.0
88 0.005205809056036
89 0.0
90 0.0
91 -0.000077011143217
92 -0.000034780394413
93 -0.000034779881878
94 0.000323785396007
95 0.0
96 0.0
97 0.0
98 -0.000332336516632
99 -0.000332335320909
100 0.000299273549028
101 0.0
102 0.0
103 0.0
104 0.001363678448434
105 0.001363678114813
106 0.001720360000308
107 0.0
108 0.0
109 0.0
110 -0.000486750800475
111 -0.000486753834101
112 -0.000764179058583
113 0.0
114 0.0
115 0.0
116 0.0
117 0.0
118 -0.000160168229512
119 0.0
120 0.0
121 -0.000057676733869
122 0.0
123 0.0
124 -0.000057676709426
125 0.0
126 0.0
127 0.0
128 -0.001075115668535
129 0.0
130 0.0
131 0.000189512250930
132 0.0
133 0.0
134 0.000189512281060
135 0.0
136 0.0
137 0.0
138 -0.001096412868218
139 0.0
140 0.0
141 -0.000090812333175
142 0.0
143 0.0
144 -0.000090811887700
145 0.0
146 -0.000103160879803
147 -0.000103161251428
148 0.000491102504402
149 0.0
150 0.0
151 0.0
152 0.0
153 0.0
154 0.0
155 -0.000060937074062
156 0.000060354841001
157 0.000060354761122
158 0.0
159 0.0
160 0.0
161 -0.000724572820812
162 -0.000724574007292
163 0.001097539289706
164 0.0
165 0.0
166 0.0
167 0.0
168 0.0
169 0.0
170 -0.000426135311451
171 -0.000310938116360
172 -0.000310938561431
173 0.0
174 0.0
175 0.0
 Sym=      3.1
 Ene=      -1.6259
 Spin= Alpha
 Occup=    2.000000
1 -0.051368767954199
2 0.11618015805552
3 0.006779211273960
4 -0.070625121327218
5 -0.032196811719652
6 0.0
7 0.0
8 0.19769554714224
9 0.0
10 0.0
11 -0.063965241894315
12 0.0
13 0.0
14 -0.10110107942172
15 0.0
16 0.0
17 -0.056363578090754
18 -0.002518499143515
19 -0.002518501478815
20 0.009516805958830
21 0.0
22 0.0
23 0.0
24 -0.009717488867726
25 -0.009717482259953
26 -0.014563147255070
27 0.0
28 0.0
29 0.0
30 0.000832234384917
31 0.000832236426300
32 0.003243659474829
33 0.0
34 0.0
35 0.0
36 0.0
37 0.0
38 0.022215726639593
39 0.0
40 0.0
41 0.003452659775735
42 0.0
43 0.0
44 0.003452659188572
45 0.0
46 0.0
47 0.0
48 0.003796625727811
49 0.0
50 0.0
51 0.000857127314123
52 0.0
53 0.0
54 0.000857133323714
55 0.0
56 0.001296316412631
57 0.001296314917639
58 0.015947451050134
59 0.0
60 0.0
61 0.0
62 0.0
63 0.0
64 0.0
65 0.000755325254317
66 0.002911737363632
67 0.002911738317843
68 0.0
69 0.0
70 0.0
71 -0.005711128590757
72 0.97076788598755
73 0.014844876521636
74 0.033819064984105
75 -0.14020065399726
76 -0.005984194079461
77 0.0
78 0.0
79 -0.029216028120922
80 0.0
81 0.0
82 0.002920824783033
83 0.0
84 0.0
85 -0.012237325814404
86 0.0
87 0.0
88 0.012425313543580
89 0.0
90 0.0
91 0.000370221638782
92 0.002578879514041
93 0.002578882595461
94 0.002559402397870
95 0.0
96 0.0
97 0.0
98 -0.002487152533148
99 -0.002487154500792
100 -0.002354544150053
101 0.0
102 0.0
103 0.0
104 0.058484648752787
105 0.058484662439818
106 0.075881507104000
107 0.0
108 0.0
109 0.0
110 0.007207473239348
111 0.007207436652765
112 0.007683273097597
113 0.0
114 0.0
115 0.0
116 0.0
117 0.0
118 -0.000187975686520
119 0.0
120 0.0
121 -0.000099757040513
122 0.0
123 0.0
124 -0.000099757180337
125 0.0
126 0.0
127 0.0
128 0.002251305143295
129 0.0
130 0.0
131 0.001540244770950
132 0.0
133 0.0
134 0.001540245026915
135 0.0
136 0.0
137 0.0
138 -0.005167682570083
139 0.0
140 0.0
141 0.000985983128675
142 0.0
143 0.0
144 0.000985985479391
145 0.0
146 0.001752568559255
147 0.001752567040700
148 0.000647152538584
149 0.0
150 0.0
151 0.0
152 0.0
153 0.0
154 0.0
155 0.001015251293139
156 0.000874175732821
157 0.000874175483947
158 0.0
159 0.0
160 0.0
161 -0.016774782911778
162 -0.016774799101646
163 -0.021163197464327
164 0.0
165 0.0
166 0.0
167 0.0
168 0.0
169 0.0
170 -0.009860106492177
171 -0.012262489012423
172 -0.012262494602296
173 0.0
174 0.0
175 0.0
 Sym=      4.1
 Ene=      -0.6545
 Spin= Alpha
 Occup=    1.732350
1 0.0
2 0.0
3 0.0
4 0.0
5 0.0
6 0.0
7 0.19847738248815
8 0.0
9 0.0
10 -0.034875472011228
11 0.0
12 0.0
13 -0.10976164586206
14 0.0
15 0.0
16 -0.056540814934488
17 0.0
18 0.0
19 0.0
20 0.0
21 0.0
22 0.0
23 0.000110602343537
24 0.0
25 0.0
26 0.0
27 0.0
28 0.0
29 0.049103568660629
30 0.0
31 0.0
32 0.0
33 0.0
34 0.0
35 -0.004620046494990
36 0.0
37 0.000398408091722
38 0.0
39 0.0
40 0.000156478700761
41 0.0
42 0.0
43 0.007674718117571
44 0.0
45 0.0
46 0.0
47 -0.000134355089719
48 0.0
49 0.0
50 -0.000106735654637
51 0.0
52 0.0
53 0.006738499631676
54 0.0
55 0.0
56 0.0
57 0.0
58 0.0
59 0.0
60 0.0
61 0.0
62 -0.013126040450193
63 0.0
64 -0.008539632480704
65 0.0
66 0.0
67 0.0
68 -0.005921996224768
69 0.0
70 0.0
71 0.0
72 0.0
73 0.0
74 0.0
75 0.0
76 0.0
77 0.0
78 0.98427248076113
79 0.0
80 0.0
81 0.040562909669265
82 0.0
83 0.0
84 -0.16092041990657
85 0.0
86 0.0
87 -0.086610521032541
88 0.0
89 0.0
90 0.028796594924882
91 0.0
92 0.0
93 0.0
94 0.0
95 0.0
96 0.0
97 -0.000239164067209
98 0.0
99 0.0
100 0.0
101 0.0
102 0.0
103 -0.000180341799154
104 0.0
105 0.0
106 0.0
107 0.0
108 0.0
109 -0.027100996228239
110 0.0
111 0.0
112 0.0
113 0.0
114 0.0
115 0.003779731858157
116 0.0
117 0.003902588493031
118 0.0
119 0.0
120 0.001487332225169
121 0.0
122 0.0
123 0.001853701759368
124 0.0
125 0.0
126 0.0
127 0.077003819459893
128 0.0
129 0.0
130 0.033561110265046
131 0.0
132 0.0
133 0.036238437799769
134 0.0
135 0.0
136 0.0
137 0.058055645226927
138 0.0
139 0.0
140 0.025429254826335
141 0.0
142 0.0
143 0.030337064965542
144 0.0
145 0.0
146 0.0
147 0.0
148 0.0
149 0.0
150 0.0
151 0.0
152 0.000680946045270
153 0.0
154 0.000977933326968
155 0.0
156 0.0
157 0.0
158 0.000297527060139
159 0.0
160 0.0
161 0.0
162 0.0
163 0.0
164 0.0
165 0.0
166 0.0
167 0.007537484977840
168 0.0
169 0.004795510735183
170 0.0
171 0.0
172 0.0
173 0.003386006696845
174 0.0
175 0.0
 Sym=      7.1
 Ene=      -0.0405
 Spin= Alpha
 Occup=    0.749957
1 0.002692975967912
2 0.83634735678246
3 0.24267192391463
4 -0.43748192613068
5 0.17636299891653
6 0.0
7 0.0
8 -0.49660452342310
9 0.0
10 0.0
11 0.040345715202579
12 0.0
13 0.0
14 0.13731041559912
15 0.0
16 0.0
17 0.11895027643001
18 -0.002117522810566
19 -0.002117750891664
20 0.004685684375965
21 0.0
22 0.0
23 0.0
24 0.013989641370989
25 0.013990617396222
26 -0.021252815369612
27 0.0
28 0.0
29 0.0
30 0.10154505907845
31 0.10154463641721
32 0.078333998172850
33 0.0
34 0.0
35 0.0
36 0.0
37 0.0
38 -0.005396140361495
39 0.0
40 0.0
41 -0.004112978503184
42 0.0
43 0.0
44 -0.004113063604971
45 0.0
46 0.0
47 0.0
48 -0.022256090700184
49 0.0
50 0.0
51 -0.005458017776477
52 0.0
53 0.0
54 -0.005457943029428
55 0.0
56 -0.003681926851683
57 -0.003682355454506
58 0.009803391111297
59 0.0
60 0.0
61 0.0
62 0.0
63 0.0
64 0.0
65 -0.002158399233108
66 0.001953096073616
67 0.001952918530826
68 0.0
69 0.0
70 0.0
71 -0.000470476689350
72 -0.069418120405903
73 -0.002780710356457
74 -0.008731116200765
75 -0.055675107740780
76 0.007674247658217
77 0.0
78 0.0
79 0.033714037215304
80 0.0
81 0.0
82 0.001110632591527
83 0.0
84 0.0
85 -0.001058350658233
86 0.0
87 0.0
88 0.010016440406872
89 0.0
90 0.0
91 -0.007465611960389
92 -0.000188669803494
93 -0.000188677913135
94 -0.000193600188378
95 0.0
96 0.0
97 0.0
98 0.000076489885348
99 0.000076419112501
100 0.000011525965010
101 0.0
102 0.0
103 0.0
104 0.000902814119407
105 0.000903330147157
106 -0.019757742584799
107 0.0
108 0.0
109 0.0
110 -0.003110403678724
111 -0.003110282850790
112 -0.009686133408024
113 0.0
114 0.0
115 0.0
116 0.0
117 0.0
118 0.000130141958616
119 0.0
120 0.0
121 0.000014877123089
122 0.0
123 0.0
124 0.000014878975397
125 0.0
126 0.0
127 0.0
128 0.002540905602367
129 0.0
130 0.0
131 0.000738595582029
132 0.0
133 0.0
134 0.000738593635291
135 0.0
136 0.0
137 0.0
138 0.008414534175890
139 0.0
140 0.0
141 0.001377364908402
142 0.0
143 0.0
144 0.001377311993498
145 0.0
146 -0.000556838932916
147 -0.000556859312210
148 0.000978094398757
149 0.0
150 0.0
151 0.0
152 0.0
153 0.0
154 0.0
155 -0.000309341769949
156 0.000038299244375
157 0.000038293983052
158 0.0
159 0.0
160 0.0
161 -0.001243265800563
162 -0.001243589648916
163 0.006588074489588
164 0.0
165 0.0
166 0.0
167 0.0
168 0.0
169 0.0
170 -0.000753279011331
171 0.002397169569513
172 0.002397089930535
173 0.0
174 0.0
175 0.0
 Sym=     10.1
 Ene=       1.3893
 Spin= Alpha
 Occup=    0.012876
1 0.017844600670109
2 0.87868943865810
3 -0.26435884442309
4 -0.48306403093958
5 -0.27264279597983
6 0.0
7 0.0
8 1.65802819629878
9 0.0
10 0.0
11 -0.53477822963883
12 0.0
13 0.0
14 -0.82932738788319
15 0.0
16 0.0
17 -0.46999659855090
18 -0.038711092445190
19 -0.038710802955376
20 0.061408799382343
21 0.0
22 0.0
23 0.0
24 0.036056524042126
25 0.036054864285558
26 -0.098706848646411
27 0.0
28 0.0
29 0.0
30 -0.009818402919710
31 -0.009817761327118