[Molden Format]
[Molpro variables]
_NUMVAR=  1023.000000000000    
_AVOGAD= 0.6022140760000000E+24
_BOLTZ= 0.1380649000000000E-22
_CLIGHTSI=  299792458.0000000    
_JOULE= 0.4359744722207100E-17
_JPCAL=  4.184000000000000    
_PLANCK= 0.6626070150000000E-33
_BOHR= 0.5291772109030000E-10
_ECHARG= 0.1602176634000000E-18
_ENULL= 0.8854187812800001E-11
_MU= 0.1660539066600000E-26
_EMASS= 0.9109383701500001E-30
_AMU2AU=  1822.888486217313    
_CLIGHT=  29979245800.00000    
_EV= 0.3674932217565494E-01
_KJOULE= 0.3808798847133432E-03
_KJOULE/MOL= 0.3808798847133432E-03
_CM= 0.4556335252912009E-05
_CM-1= 0.4556335252912009E-05
_DEB2SI= 0.3335640951981520E-29
_KCAL= 0.1593601437640628E-02
_KCAL/MOL= 0.1593601437640628E-02
_KELVIN= 0.3166811563455608E-05
_HERTZ= 0.1519829846057038E-15
_HZ= 0.1519829846057038E-15
_TOA= 0.5291772109030000    
_TOANG= 0.5291772109030000    
_TORAD= 0.1745329251994330E-01
_TOCM=  219474.6313631965    
_TODEBYE=  2.541746473194078    
_TOE= 0.4803204712570263E-09
_TOEV=  27.21138624598803    
_TOHERTZ=  6579683920501656.    
_TOHZ=  6579683920501656.    
_TOK=  315775.0248040668    
_TOKCAL=  627.5094740630558    
_TOKELVIN=  315775.0248040668    
_TOKJ=  2625.499639479825    
_TOKJOULE=  2625.499639479825    
_TOKG= 0.1660539066600000E-26
_ANG=  1.889726124625770    
_ANGSTROM=  1.889726124625770    
_RPAREF=  0.000000000000000    
_RPADISS=  0.000000000000000    
_IGNORE_UNDEF=  2.000000000000000    
_STRICTCHECK=  0.000000000000000    
!SEWARD=  0.000000000000000    
!MULTI=  0.000000000000000    
!DFMULTI=  0.000000000000000    
_SEW_ONEEL=  0.000000000000000    
_CPPDONE=FALSE
_DKROLL_DONE=  0.000000000000000    
_FNUC_DONE=  0.000000000000000    
_FOCKDONE=TRUE
_GRADONE=FALSE
_HESSDONE=FALSE
_INTDONE=TRUE
_SCFDONE=TRUE
_MODUL_BLOCK=FALSE
_MODUL_CUDA=FALSE
_MODUL_SLATER=FALSE
_MODUL_MRCC=FALSE
_MODUL_NBO6=FALSE
_MODUL_NECI=FALSE
_MODUL_AIMS=TRUE
_MODUL_GECCO=FALSE
_ISWINDOWS=FALSE
_MRCC_EXEC=
_FITC_AO_SAVED=FALSE
_FITC_MO_SAVED=FALSE
_SHARED_FS=TRUE
_LSTYP=SEWARD
_INTYP=INTS
_GEOMTYP=ZMAT
_GRADTYP=ALASKA
_DIRECT=FALSE
_DKHO= -1.000000000000000    
_FNUC=  0.000000000000000    
_SYNCM=  0.000000000000000    
_BASIS=AVDZ
_ZCENTRE=MASS
_ZUNIT=ANG
_ZORIENT=  0.000000000000000    
!ZORIENT=  0.000000000000000    
_NELEC=  12.00000000000000    
!SPIN=  0.000000000000000    
_QSDSTEP=  0.000000000000000    
_QSDIRC=  0.000000000000000    
_PROGRAM=MULTI
_CPUSTEP=  8.529999999999999    
_SYSSTEP= 0.7500000000000000    
_WALLSTEP=  8.670000000000000    
!DFSCF=  0.000000000000000    
!SCSGRD=  0.000000000000000    
_CPUTOT=  8.760000000000000    
_DFTEXFAC=  1.000000000000000    
_DMX= 0.1399097617635778E-14
_DMY=-0.1578727814964972E-14
_DMZ= -2.656822752708127    
_DMX_SCF=-0.1616025893493330E-13
_DMY_SCF= 0.1687853237256520E-13
_DMZ_SCF= -2.590088138643894    
_HOMO=  6.100000000000000    
_EHOMO=-0.4725422513268931    
_LUMO=  7.100000000000000    
_ELUMO=-0.1103070229044346E-01
_ENERGY= -107.0716082236781    
_ENERGY_METHOD=MULTI
_ENERGY_BASIS=aug-cc-pVDZ
_GEOMETRY_METHOD=
_GEOMETRY_BASIS=
_ENERGY_AVRG= -106.9038519955866    
_ENUC=  9.042901705304430    
_GRADEXFAC=  9999.000000000000    
_GRADMETHOD=  4.000000000000000    
_NMRMETHOD=  0.000000000000000    
_NMRMAGNET=  0.000000000000000    
!GRID_FREEZE= -1.000000000000000    
!NEESE_INDEX=  0.000000000000000    
_ITERATIONS=  4.000000000000000    
_LASTNELEC=  6.000000000000000    
_LASTSPIN=  0.000000000000000    
_LASTSYM=  1.000000000000000    
_MPP_PROG=  0.000000000000000    
_MSNSTATES=  0.000000000000000    
_RS2PHASE=  0.000000000000000    
_IPROC_MPP=  0.000000000000000    
_IPROC_MPPX=  0.000000000000000    
_NPROC_MPP=  1.000000000000000    
_NPROC_MPPX=  1.000000000000000    
_NPROC_SMP=  1.000000000000000    
_NUMSTEP=  0.000000000000000    
_ORBITAL=  2140.200000000000    
_PI=  3.141592653589793    
!MCACT=  11.00000000000000    
!MCCLOSED=  3.000000000000000    
!MCFREEZE=  0.000000000000000    
!MCMS2=  0.000000000000000    
!MCNEL=  6.000000000000000    
!MCNSTSYM=  1.000000000000000    
!MCSTATE=  4.000000000000000    
!MCSYM=  1.000000000000000    
!MCWEIGHT= 0.2500000000000000    
_SEIG_MIN= 0.1668061829709060E-02
_SEWPROP=TRUE
_STATUS=  1.000000000000000    
_SYSTOT=  1.070000000000000    
_VERSION=  2022002.000000000    
_WALLTOT=  9.230000000000000    
_DATE=14-Jul-23
_LASTORB=MCSCF
_OUTPUT=/home/andres/PycharmProjects/PyXSCAT/src/lif-eq-z-mine.out
_PGROUP=C1
_TIME=12:54:44
_LIBMOL=/usr/local/molpro/molpro_2022.2/lib/
_VIGRDC=  0.000000000000000    
!VIBCNT=  0.000000000000000    
!RGHFCNT=  0.000000000000000    
!SURFREC=  0.000000000000000    
!XSURFREC=  0.000000000000000    
!XPOLYREC=  0.000000000000000    
!ROTREC=  0.000000000000000    
!POLYREC=  0.000000000000000    
!DIPREC=  0.000000000000000    
!DIP4DREC=  0.000000000000000    
!DIPROT=  0.000000000000000    
!DIP4DROT=  0.000000000000000    
!PTREC=  0.000000000000000    
!PT4DREC=  0.000000000000000    
!VSCFREC=  0.000000000000000    
!VCIREC=  0.000000000000000    
!PVCIREC=  0.000000000000000    
!VMP2REC=  0.000000000000000    
!VMCSCFREC=  0.000000000000000    
!VMRCIREC=  0.000000000000000    
!VIBSTATEREC=  0.000000000000000    
!VIBSTATECNT=  0.000000000000000    
!VIBINFO=  0.000000000000000    
!GAREC=  0.000000000000000    
!SCFORB=  21002.00000000000    
!MCORB=  21402.00000000000    
!DEFCORE=  2.000000000000000    
!SCORE=  0.000000000000000    
!NEWMOL= -1.000000000000000    
!NEWSYM= -1.000000000000000    
_SLFILES=slscratch
_NGSSTO=  9.000000000000000    
_SIN=SIN
_COS=COS
_TAN=TAN
_ACOS=ACOS
_ASIN=ASIN
_ATAN=ATAN
_COSH=COSH
_SINH=SINH
_TANH=TANH
_ABS=ABS
_MOD=MOD
_ERF=ERF
_REFC=REFC
_ERFC=ERFC
_HYPOT=HYPOT
_J0=J0
_J1=J1
_JN=JN
_GAMMA=GAMMA
_LGAMMA=LGAMMA
_Y0=Y0
_Y1=Y1
_YN=YN
_EXP=EXP
_LOG=LOG
_LOG10=LOG10
_SQRT=SQRT
_INT=INT
_NINT=NINT
_MAX=MAX
_MIN=MIN
_COSMO=  0.000000000000000    
_COSMOIT=  0.000000000000000    
_COSMOES=  0.000000000000000    
_COSMOEDS=  0.000000000000000    
_COSMOEC=  0.000000000000000    
_COSMOEDCORR=  0.000000000000000    
_FEPSI=  1.000000000000000    
_SL_IsMM=  0.000000000000000    
_SL_NSYM=  1.000000000000000    
_SL_System_BitSw=  0.000000000000000    
_SL_Unique_atoms=  0.000000000000000    
_SL_GRAD=  0.000000000000000    
_SL_MAXUPD_Hess=  5.000000000000000    
_SL_N_PRINT_COD=  5.000000000000000    
_SL_PRINT_CODES=  0.000000000000000    
_SL_BasType=  0.000000000000000    
_SL_Energy_Pred=  0.000000000000000    
_SL_New_Coords=  0.000000000000000    
_SL_Total_Nuclea=  0.000000000000000    
_SL_Highest_Mltp=  0.000000000000000    
_SL_Ref_Geom=  0.000000000000000    
_SL_Symmetry_ope=  1.000000000000000    
_SL_agrad=  0.000000000000000    
_SL_GrdMax=  0.000000000000000    
_SL_GrdNorm=  0.000000000000000    
_SL_GrdRMS=  0.000000000000000    
_SL_Hss_Q=  0.000000000000000    
_SL_Hss_X=  0.000000000000000    
_SL_BMxOld=  0.000000000000000    
_SL_KtB=  0.000000000000000    
_SL_TROld=  0.000000000000000    
_SL_No_of_Intern=  0.000000000000000    
_SL_Hess=  0.000000000000000    
_SL_K=  0.000000000000000    
!LATTICE= -1.000000000000000    
!NEWLATTICE=  0.000000000000000    
!LATGRAD_VAR=FALSE
!SEW_LATTICE=  1.000000000000000    
!AIC_ONEEL=  0.000000000000000    
!LOCAL=  0.000000000000000    
!SAVEDOM= -1.000000000000000    
!RESTDOM= -1.000000000000000    
!SAVEDOM_HF= -1.000000000000000    
!RESTDOM_HF= -1.000000000000000    
!HESSREC=  0.000000000000000    
!FREQREC=  0.000000000000000    
!NMODREC=  0.000000000000000    
!GTASKS=  0.000000000000000    
!HTASKS=  0.000000000000000    
!SAVEDOM_EOM= -1.000000000000000    
!RESTDOM_EOM= -1.000000000000000    
!GRADSTATE= -1.000000000000000    
!DEBUG=  0.000000000000000    
!CFIT_CPHF=  0.000000000000000    
!RDOMAUX_CPHF=  0.000000000000000    
!THRAO_CPHF= 0.1000000000000000E-11
!THRMO_CPHF= 0.1000000000000000E-11
!THROV_CPHF= 0.1000000000000000E-11
!THRSW_CPHF= 0.1000000000000000E-11
!THRPROD_CPHF= 0.1000000000000000E-11
!THRAOPR_CPHF= 0.1000000000000000E-11
!CFIT_SCFGRD=  0.000000000000000    
!RDOMAUX_SCFGRD=  0.000000000000000    
!THRAO_SCFGRD= 0.1000000000000000E-11
!THRMO_SCFGRD= 0.1000000000000000E-11
!THROV_SCFGRD= 0.1000000000000000E-11
!THRSW_SCFGRD= 0.1000000000000000E-11
!THRPROD_SCFGRD= 0.1000000000000000E-11
!THRAOPR_SCFGRD= 0.1000000000000000E-11
!LOCFIT_SCF=  0.000000000000000    
!LOCFIT_MP2=  0.000000000000000    
_RIDOM=  0.000000000000000    
!CC2_METHOD=  0.000000000000000    
_BASIS2006=FALSE
_SVDDEL= -1.000000000000000    
_SVDDELA= -1.000000000000000    
_SVDDELP= -1.000000000000000    
_SVDDELF= -1.000000000000000    
_SVDDELS= -1.000000000000000    
_SVDDEL_ABS= -1.000000000000000    
_SVDDELA_ABS= -1.000000000000000    
_SVDDELP_ABS= -1.000000000000000    
_SVDDELF_ABS= -1.000000000000000    
_SVDDELS_ABS= -1.000000000000000    
_MAXBASIS=  0.000000000000000    
!OPT_CONICAL=  0.000000000000000    
!CLEARSP_JGRID=  0.000000000000000    
_GRDHYBR=  0.000000000000000    
_STATEGRAD=  1.000000000000000    
_4EXT_NDISKS=  1.000000000000000    
!EMBEDFLAG=  1.000000000000000    
!EMBED=FALSE
!EMBED_F12=FALSE
!EMBEDNUC=  0.000000000000000    
_EMBEDENERGY=  0.000000000000000    
!EMBED_DFC=FALSE
!NUM_VOIDS=  0.000000000000000    
_IBODY=  0.000000000000000    
_EMBE_CORR=  0.000000000000000    
!EMBED_PROJ=FALSE
!EMB_PROJ_ZMU=  1000000.000000000    
!CORRECTION_HF=  0.000000000000000    
!EMBED_AORB=  0.000000000000000    
!EMBED_NACORR=  0.000000000000000    
!EMBED_MP2=FALSE
!EMBED_TRUNC_PERTURBATION=FALSE
!EMBED_FROZEN=  0.000000000000000    
!EMBED_ACTIVE=  0.000000000000000    
_CHANGE_BASIS=FALSE
_RESTORE_BASIS=FALSE
_FIX_EMBED_GUESS=FALSE
_EMBED_SCF=FALSE
_HUZINAGA_T=FALSE
_HUZINAGA_F=FALSE
_HUZINAGA=FALSE
_HUZINAGA_CORRECT=FALSE
!FASTLATGRAD=  1.000000000000000    
!FASTVLAMBDA= -1.000000000000000    
!IFORCE= -1.000000000000000    
!USESYM= -1.000000000000000    
_SINDEX=  0.000000000000000    
_AVDOM_OSV=  0.000000000000000    
_AVDOM_PNO=  0.000000000000000    
_AVDOM_PAO=  0.000000000000000    
_AVDOM_LMO=  0.000000000000000    
_CC2OSV_FLAG=  0.000000000000000    
_EOMCCSD_CONV=FALSE
_TMADC2_FLAG=FALSE
_PROPADC2_FLAG=FALSE
_LEN_VirQ=  0.000000000000000    
_GRDCC2LR_FLAG=FALSE
_GRDADC2_FLAG=FALSE
_DMX_CC= -0.000000000000000    
_DMY_CC= -0.000000000000000    
_DMZ_CC= -2.891813270840038    
_DMX_NUC=  0.000000000000000    
_DMY_NUC=  0.000000000000000    
_DMZ_NUC=  8.957301830723999    
_RO_VGLOBAL=  0.000000000000000    
_OPT=FALSE
_FREQ=FALSE
_HESS=FALSE
_CMRCC_callName=EMPTY
_CMRCC_callCount=  0.000000000000000    
_GECCO_CIROOT=  1.000000000000000    
_SYM_CATION=  1.000000000000000    
_MON_A=FALSE
_MON_B=FALSE
GEOMTYP=XYZ
GX1=  0.000000000000000    
GY1=  0.000000000000000    
GZ1=-0.7900000000000000    
GX2=  0.000000000000000    
GY2=  0.000000000000000    
GZ2= 0.7900000000000000    
_TRDMX=-0.3018004127545448    
_TRDMY= 0.4107412729926142E-01
_TRDMZ=-0.2147068837396366E-14
[Atoms] Angs
LI    1    3         0.0000000000        0.0000000000       -0.7900000000
F     2    9         0.0000000000        0.0000000000        0.7900000000
[GTO]
   1 0
 s    9  1.00
  0.1469000000D+04  0.7660004551D-03
  0.2205000000D+03  0.5892003501D-02
  0.5026000000D+02  0.2967101763D-01
  0.1424000000D+02  0.1091800649D+00
  0.4581000000D+01  0.2827891680D+00
  0.1580000000D+01  0.4531232692D+00
  0.5640000000D+00  0.2747741632D+00
  0.7345000000D-01  0.9751005793D-02
  0.2805000000D-01 -0.3180001889D-02
 s    9  1.00
  0.1469000000D+04 -0.1199999889D-03
  0.2205000000D+03 -0.9229999148D-03
  0.5026000000D+02 -0.4688999567D-02
  0.1424000000D+02 -0.1768199837D-01
  0.4581000000D+01 -0.4890199549D-01
  0.1580000000D+01 -0.9600899114D-01
  0.5640000000D+00 -0.1363799874D+00
  0.7345000000D-01  0.5751019469D+00
  0.2805000000D-01  0.5176609522D+00
 s    9  1.00
  0.1469000000D+04  0.0000000000D+00
  0.2205000000D+03  0.0000000000D+00
  0.5026000000D+02  0.0000000000D+00
  0.1424000000D+02  0.0000000000D+00
  0.4581000000D+01  0.0000000000D+00
  0.1580000000D+01  0.0000000000D+00
  0.5640000000D+00  0.0000000000D+00
  0.7345000000D-01  0.0000000000D+00
  0.2805000000D-01  0.1000000000D+01
 s    1  1.00
  0.8600000000D-02  0.1000000000D+01
 p    4  1.00
  0.1534000000D+01  0.2278398947D-01
  0.2749000000D+00  0.1391069357D+00
  0.7362000000D-01  0.5003747687D+00
  0.2403000000D-01  0.5084737649D+00
 p    4  1.00
  0.1534000000D+01  0.0000000000D+00
  0.2749000000D+00  0.0000000000D+00
  0.7362000000D-01  0.0000000000D+00
  0.2403000000D-01  0.1000000000D+01
 p    1  1.00
  0.5800000000D-02  0.1000000000D+01
 d    1  1.00
  0.1144000000D+00  0.1000000000D+01
 d    1  1.00
  0.7330000000D-01  0.1000000000D+01
  
   2 0
 s    9  1.00
  0.1471000000D+05  0.7210003276D-03
  0.2207000000D+04  0.5553002523D-02
  0.5028000000D+03  0.2826701284D-01
  0.1426000000D+03  0.1064440484D+00
  0.4647000000D+02  0.2868141303D+00
  0.1670000000D+02  0.4486412038D+00
  0.6356000000D+01  0.2647611203D+00
  0.1316000000D+01  0.1533300697D-01
  0.3897000000D+00 -0.2332001059D-02
 s    9  1.00
  0.1471000000D+05 -0.1650001117D-03
  0.2207000000D+04 -0.1308000885D-02
  0.5028000000D+03 -0.6495004395D-02
  0.1426000000D+03 -0.2669101806D-01
  0.4647000000D+02 -0.7369004987D-01
  0.1670000000D+02 -0.1707761156D+00
  0.6356000000D+01 -0.1123270760D+00
  0.1316000000D+01  0.5628143809D+00
  0.3897000000D+00  0.5687783849D+00
 s    9  1.00
  0.1471000000D+05  0.0000000000D+00
  0.2207000000D+04  0.0000000000D+00
  0.5028000000D+03  0.0000000000D+00
  0.1426000000D+03  0.0000000000D+00
  0.4647000000D+02  0.0000000000D+00
  0.1670000000D+02  0.0000000000D+00
  0.6356000000D+01  0.0000000000D+00
  0.1316000000D+01  0.0000000000D+00
  0.3897000000D+00  0.1000000000D+01
 s    1  1.00
  0.9863000000D-01  0.1000000000D+01
 p    4  1.00
  0.2267000000D+02  0.4487800121D-01
  0.4977000000D+01  0.2357180064D+00
  0.1347000000D+01  0.5085210137D+00
  0.3471000000D+00  0.4581200124D+00
 p    4  1.00
  0.2267000000D+02  0.0000000000D+00
  0.4977000000D+01  0.0000000000D+00
  0.1347000000D+01  0.0000000000D+00
  0.3471000000D+00  0.1000000000D+01
 p    1  1.00
  0.8502000000D-01  0.1000000000D+01
 d    1  1.00
  0.1640000000D+01  0.1000000000D+01
 d    1  1.00
  0.4640000000D+00  0.1000000000D+01


[MO]
 Sym=      1.1
 Ene=     -26.4421
 Spin= Alpha
 Occup=    2.000000
1 -0.000044051237580
2 -0.000078132300339
3 -0.000500098113396
4 0.000115232114298
5 0.0
6 0.0
7 0.000647008506827
8 0.0
9 0.0
10 -0.000775631214380
11 0.0
12 0.0
13 0.000122459052410
14 -0.000432899024668
15 -0.000432899024668
16 0.000865798049336
17 0.0
18 0.0
19 0.0
20 0.000282137823324
21 0.000282137823324
22 -0.000564275646647
23 0.0
24 0.0
25 0.0
26 1.00040508977368
27 0.001567363965919
28 -0.002921804225812
29 0.001749143000434
30 0.0
31 0.0
32 -0.000334715630867
33 0.0
34 0.0
35 0.000343135792031
36 0.0
37 0.0
38 -0.000236249683645
39 0.000010307672394
40 0.000010307672394
41 -0.000020615344788
42 0.0
43 0.0
44 0.0
45 -0.000019797730089
46 -0.000019797730089
47 0.000039595460177
48 0.0
49 0.0
50 0.0
 Sym=      2.1
 Ene=      -2.4750
 Spin= Alpha
 Occup=    2.000000
1 0.99770213828478
2 0.001838627051006
3 -0.002309132869534
4 0.001208434299261
5 0.0
6 0.0
7 -0.000993721370109
8 0.0
9 0.0
10 0.000876001703495
11 0.0
12 0.0
13 -0.000138971188492
14 0.000346324246976
15 0.000346324246976
16 -0.000692648493952
17 0.0
18 0.0
19 0.0
20 -0.000354115536898
21 -0.000354115536898
22 0.000708231073796
23 0.0
24 0.0
25 0.0
26 -0.000743879807249
27 0.030068007472349
28 -0.000198834244587
29 -0.000831386442628
30 0.0
31 0.0
32 -0.009593665718604
33 0.0
34 0.0
35 -0.000226244073350
36 0.0
37 0.0
38 0.000822342689150
39 -0.000437951898169
40 -0.000437951898169
41 0.000875903796338
42 0.0
43 0.0
44 0.0
45 -0.000932481949232
46 -0.000932481949232
47 0.001864963898464
48 0.0
49 0.0
50 0.0
 Sym=      3.1
 Ene=      -1.6381
 Spin= Alpha
 Occup=    2.000000
1 -0.058428470546872
2 0.076357148769793
3 -0.041233261607659
4 -0.000999943445998
5 0.0
6 0.0
7 0.051773907016836
8 0.0
9 0.0
10 -0.029648170500131
11 0.0
12 0.0
13 0.000330821077427
14 0.000053528309278
15 0.000053528309278
16 -0.000107056618556
17 0.0
18 0.0
19 0.0
20 -0.003157026909595
21 -0.003157026909595
22 0.006314053819191
23 0.0
24 0.0
25 0.0
26 -0.000472385098828
27 0.99343275441423
28 -0.001859669311746
29 -0.030598768874736
30 0.0
31 0.0
32 -0.027841032664462
33 0.0
34 0.0
35 -0.012215757522606
36 0.0
37 0.0
38 0.018743772972962
39 -0.000349105182136
40 -0.000349105182136
41 0.000698210364273
42 0.0
43 0.0
44 0.0
45 -0.003528861364765
46 -0.003528861364765
47 0.007057722729529
48 0.0
49 0.0
50 0.0
 Sym=      4.1
 Ene=      -0.6602
 Spin= Alpha
 Occup=    1.732763
1 0.0
2 0.0
3 0.0
4 0.0
5 0.0
6 0.068723127852681
7 0.0
8 0.0
9 -0.047510077074620
10 0.0
11 0.0
12 0.003473731406825
13 0.0
14 0.0
15 0.0
16 0.0
17 0.0
18 0.0
19 0.009648534013583
20 0.0
21 0.0
22 0.0
23 0.0
24 0.0
25 0.007135844671052
26 0.0
27 0.0
28 0.0
29 0.0
30 0.0
31 0.97693416371461
32 0.0
33 0.0
34 -0.005329039890607
35 0.0
36 0.0
37 0.039163123580407
38 0.0
39 0.0
40 0.0
41 0.0
42 0.0
43 0.0
44 -0.001965708718004
45 0.0
46 0.0
47 0.0
48 0.0
49 0.0
50 -0.016761490658894
 Sym=      9.1
 Ene=       1.0746
 Spin= Alpha
 Occup=    0.015259
1 0.0
2 0.0
3 0.0
4 0.0
5 0.0
6 0.23063353752504
7 0.0
8 0.0
9 -0.16834537047911
10 0.0
11 0.0
12 0.013761149221403
13 0.0
14 0.0
15 0.0
16 0.0
17 0.0
18 0.0
19 0.052903528594702
20 0.0
21 0.0
22 0.0
23 0.0
24 0.0
25 0.002017465796694
26 0.0
27 0.0
28 0.0
29 0.0
30 0.0
31 -1.25509232710351
32 0.0
33 0.0
34 1.40266732819894
35 0.0
36 0.0
37 0.15362418574558
38 0.0
39 0.0
40 0.0
41 0.0
42 0.0
43 0.0
44 -0.013574581544938
45 0.0
46 0.0
47 0.0
48 0.0
49 0.0
50 -0.052887039022811
 Sym=     13.1
 Ene=       2.6695
 Spin= Alpha
 Occup=    0.002499
1 0.0
2 0.0
3 0.0
4 0.0
5 0.0
6 -0.017845867913488
7 0.0
8 0.0
9 0.012704184643645
10 0.0
11 0.0
12 -0.000932875122325
13 0.0
14 0.0
15 0.0
16 0.0
17 0.0
18 0.0
19 -0.002693749314108
20 0.0
21 0.0
22 0.0
23 0.0
24 0.0
25 0.000080217994822
26 0.0
27 0.0
28 0.0
29 0.0
30 0.0
31 -0.075869394301822
32 0.0
33 0.0
34 0.11311494904361
35 0.0
36 0.0
37 0.014508921306200
38 0.0
39 0.0
40 0.0
41 0.0
42 0.0
43 0.0
44 0.73021575463904
45 0.0
46 0.0
47 0.0
48 0.0
49 0.0
50 0.39725184417169
 Sym=      5.1
 Ene=      -0.6602
 Spin= Alpha
 Occup=    1.732763
1 0.0
2 0.0
3 0.0
4 0.0
5 0.068723127852683
6 0.0
7 0.0
8 -0.047510077074621
9 0.0
10 0.0
11 0.003473731406826
12 0.0
13 0.0
14 0.0
15 0.0
16 0.0
17 0.0
18 0.009648534013581
19 0.0
20 0.0
21 0.0
22 0.0
23 0.0
24 0.007135844671054
25 0.0
26 0.0
27 0.0
28 0.0
29 0.0
30 0.97693416371461
31 0.0
32 0.0
33 -0.005329039890610
34 0.0
35 0.0
36 0.039163123580407
37 0.0
38 0.0
39 0.0
40 0.0
41 0.0
42 0.0
43 -0.001965708718004
44 0.0
45 0.0
46 0.0
47 0.0
48 0.0
49 -0.016761490658894
50 0.0
 Sym=     10.1
 Ene=       1.0746
 Spin= Alpha
 Occup=    0.015259
1 0.0
2 0.0
3 0.0
4 0.0
5 0.23063353752506
6 0.0
7 0.0
8 -0.16834537047911
9 0.0
10 0.0
11 0.013761149221405
12 0.0
13 0.0
14 0.0
15 0.0
16 0.0
17 0.0
18 0.052903528594705
19 0.0
20 0.0
21 0.0
22 0.0
23 0.0
24 0.002017465796694
25 0.0
26 0.0
27 0.0
28 0.0
29 0.0
30 -1.25509232710350
31 0.0
32 0.0
33 1.40266732819892
34 0.0
35 0.0
36 0.15362418574558
37 0.0
38 0.0
39 0.0
40 0.0
41 0.0
42 0.0
43 -0.013574581544943
44 0.0
45 0.0
46 0.0
47 0.0
48 0.0
49 -0.052887039022813
50 0.0
 Sym=     12.1
 Ene=       2.6695
 Spin= Alpha
 Occup=    0.002499
1 0.0
2 0.0
3 0.0
4 0.0
5 -0.017845867913489
6 0.0
7 0.0
8 0.012704184643646
9 0.0
10 0.0
11 -0.000932875122325
12 0.0
13 0.0
14 0.0
15 0.0
16 0.0
17 0.0
18 -0.002693749314107
19 0.0
20 0.0
21 0.0
22 0.0
23 0.0
24 0.000080217994821
25 0.0
26 0.0
27 0.0
28 0.0
29 0.0
30 -0.075869394301832
31 0.0
32 0.0
33 0.11311494904362
34 0.0
35 0.0
36 0.014508921306203
37 0.0
38 0.0
39 0.0
40 0.0
41 0.0
42 0.0
43 0.73021575463904
44 0.0
45 0.0
46 0.0
47 0.0
48 0.0
49 0.39725184417170
50 0.0
 Sym=      6.1
 Ene=      -0.6783
 Spin= Alpha
 Occup=    1.729200
1 0.037113818924505
2 -0.30427433948153
3 0.18042603156885
4 -0.000964029788184
5 0.0
6 0.0
7 -0.25283364822901
8 0.0
9 0.0
10 0.15451640628399
11 0.0
12 0.0
13 -0.006098866959222
14 0.011265637716696
15 0.011265637716696
16 -0.022531275433392
17 0.0
18 0.0
19 0.0
20 0.005981722613119
21 0.005981722613119
22 -0.011963445226237
23 0.0
24 0.0
25 0.0
26 0.006990000953860
27 0.071679485312306
28 -0.032668668155504
29 0.18640896543554
30 0.0
31 0.0
32 0.97462220496758
33 0.0
34 0.0
35 -0.002356021378169
36 0.0
37 0.0
38 -0.008782080879770
39 0.001036108984905
40 0.001036108984905
41 -0.002072217969810
42 0.0
43 0.0
44 0.0
45 0.011293118906735
46 0.011293118906735
47 -0.022586237813471
48 0.0
49 0.0
50 0.0
 Sym=      7.1
 Ene=      -0.0405
 Spin= Alpha
 Occup=    0.749921
1 -0.002047046923412
2 0.83210839323878
3 0.14835165463465
4 0.030582009815764
5 0.0
6 0.0
7 -0.40061118887169
8 0.0
9 0.0
10 0.14764792174928
11 0.0
12 0.0
13 -0.000944230089067
14 0.003407041668070
15 0.003407041668070
16 -0.006814083336139
17 0.0
18 0.0
19 0.0
20 0.010579571046816
21 0.010579571046816
22 -0.021159142093632
23 0.0
24 0.0
25 0.0
26 -0.000468580741246
27 -0.067935628037809
28 -0.048696834582407
29 -0.041455503292322
30 0.0
31 0.0
32 0.032509342027379
33 0.0
34 0.0
35 0.015141085189618
36 0.0
37 0.0
38 0.015316200662468
39 0.000161796414738
40 0.000161796414738
41 -0.000323592829475
42 0.0
43 0.0
44 0.0
45 0.003765967270977
46 0.003765967270977
47 -0.007531934541954
48 0.0
49 0.0
50 0.0
 Sym=      8.1
 Ene=       0.9995
 Spin= Alpha
 Occup=    0.015759
1 -0.032816169376421
2 -0.94905017715588
3 0.59835719983009
4 0.003446604738306
5 0.0
6 0.0
7 -1.08164249199559
8 0.0
9 0.0
10 0.62394479762690
11 0.0
12 0.0
13 -0.022531270071668
14 0.009350833962275
15 0.009350833962275
16 -0.018701667924550
17 0.0
18 0.0
19 0.0
20 0.066711883474635
21 0.066711883474635
22 -0.13342376694927
23 0.0
24 0.0
25 0.0
26 -0.002094378619627
27 0.012630973333729
28 0.036073332065957
29 0.66164937359530
30 0.0
31 0.0
32 -1.19583029907955
33 0.0
34 0.0
35 1.24145288804036
36 0.0
37 0.0
38 0.20077033138188
39 0.004370188450407
40 0.004370188450407
41 -0.008740376900815
42 0.0
43 0.0
44 0.0
45 0.034309713121256
46 0.034309713121256
47 -0.068619426242512
48 0.0
49 0.0
50 0.0
 Sym=     11.1
 Ene=       2.6930
 Spin= Alpha
 Occup=    0.002829
1 0.058418962133696
2 -0.059938067150057
3 0.002782193812177
4 -0.000444291755452
5 0.0
6 0.0
7 0.019672161539664
8 0.0
9 0.0
10 -0.017157302615423
11 0.0
12 0.0
13 0.002549723587215
14 -0.004715627555234
15 -0.004715627555234
16 0.009431255110469
17 0.0
18 0.0
19 0.0
20 0.003126959766311
21 0.003126959766311
22 -0.006253919532622
23 0.0
24 0.0
25 0.0
26 -0.019364519278800
27 -0.10206277401980
28 0.077054864909864
29 0.072362423620473
30 0.0
31 0.0
32 0.057701820185323
33 0.0
34 0.0
35 -0.082636971496630
36 0.0
37 0.0
38 -0.022954329424855
39 0.36818640195234
40 0.36818640195234
41 -0.73637280390468
42 0.0
43 0.0
44 0.0
45 0.19638209909751
46 0.19638209909751
47 -0.39276419819502
48 0.0
49 0.0
50 0.0
 Sym=     14.1
 Ene=       0.9705
 Spin= Alpha
 Occup=    0.001250
1 0.40455578725742
2 1.97342250867496
3 -1.07179489390253
4 -0.028951732694777
5 0.0
6 0.0
7 2.82938172276121
8 0.0
9 0.0
10 -1.51624041869565
11 0.0
12 0.0
13 0.040785689436510
14 0.008362332395431
15 0.008362332395431
16 -0.016724664790863
17 0.0
18 0.0
19 0.0
20 -0.26573272213965
21 -0.26573272213965
22 0.53146544427929
23 0.0
24 0.0
25 0.0
26 -0.059966248239208
27 -0.39313025076659
28 0.17035170832198
29 -1.56997522377975
30 0.0
31 0.0
32 -0.72841386186353
33 0.0
34 0.0
35 1.67080305404114
36 0.0
37 0.0
38 -0.99766255341352
39 0.020809509336581
40 0.020809509336581
41 -0.041619018673161
42 0.0
43 0.0
44 0.0
45 -0.018803884799746
46 -0.018803884799746
47 0.037607769599492
48 0.0
49 0.0
50 0.0
 Sym=     15.1
 Ene=       0.0139
 Spin= Alpha
 Occup=    0.000000
1 -0.007974573670869
2 -0.080322174660402
3 0.17557883713999
4 -0.20297005271065
5 0.0
6 0.0
7 -0.11783147662244
8 0.0
9 0.0
10 0.23813287135073
11 0.0
12 0.0
13 -1.07253007547672
14 0.010139803590010
15 0.010139803590010
16 -0.020279607180020
17 0.0
18 0.0
19 0.0
20 -0.026623098371919
21 -0.026623098371919
22 0.053246196743837
23 0.0
24 0.0
25 0.0
26 -0.000920735211130
27 0.020008375385347
28 0.032520714259875
29 -0.020269813793215
30 0.0
31 0.0
32 -0.003276284279836
33 0.0
34 0.0
35 -0.011808263792549
36 0.0
37 0.0
38 0.028971657625240
39 0.000630517549459
40 0.000630517549459
41 -0.001261035098919
42 0.0
43 0.0
44 0.0
45 0.001479059173804
46 0.001479059173804
47 -0.002958118347608
48 0.0
49 0.0
50 0.0
 Sym=     16.1
 Ene=       0.0139
 Spin= Alpha
 Occup=    0.000000
1 0.0
2 0.0
3 0.0
4 0.0
5 0.0
6 -0.026670800751059
7 0.0
8 0.0
9 0.17855018931742
10 0.0
11 0.0
12 -1.08224172633030
13 0.0
14 0.0
15 0.0
16 0.0
17 0.0
18 0.0
19 -0.001927472146417
20 0.0
21 0.0
22 0.0
23 0.0
24 0.0
25 0.023763320734150
26 0.0
27 0.0
28 0.0
29 0.0
30 0.0
31 -0.012697927472700
32 0.0
33 0.0
34 0.015438143090158
35 0.0
36 0.0
37 0.020637215815327
38 0.0
39 0.0
40 0.0
41 0.0
42 0.0
43 0.0
44 0.000376931994042
45 0.0
46 0.0
47 0.0
48 0.0
49 0.0
50 -0.001012607094450
 Sym=     17.1
 Ene=       0.0139
 Spin= Alpha
 Occup=    0.000000
1 0.0
2 0.0
3 0.0
4 0.0
5 -0.026670800751058
6 0.0
7 0.0
8 0.17855018931741
9 0.0
10 0.0
11 -1.08224172633030
12 0.0
13 0.0
14 0.0
15 0.0
16 0.0
17 0.0
18 -0.001927472146418
19 0.0
20 0.0
21 0.0
22 0.0
23 0.0
24 0.023763320734150
25 0.0
26 0.0
27 0.0
28 0.0
29 0.0
30 -0.012697927472701
31 0.0
32 0.0
33 0.015438143090159
34 0.0
35 0.0
36 0.020637215815331
37 0.0
38 0.0
39 0.0
40 0.0
41 0.0
42 0.0
43 0.000376931994042
44 0.0
45 0.0
46 0.0
47 0.0
48 0.0
49 -0.001012607094450
50 0.0
 Sym=     18.1
 Ene=       0.0320
 Spin= Alpha
 Occup=    0.000000
1 -0.053399521316800
2 -0.14951562762682
3 1.43660125239131
4 -1.63542096412098
5 0.0
6 0.0
7 -0.16334306045611
8 0.0
9 0.0
10 -0.10171825661040
11 0.0
12 0.0
13 0.21920109494954
14 0.014778835711211
15 0.014778835711211
16 -0.029557671422421
17 0.0
18 0.0
19 0.0
20 -0.049260087074405
21 -0.049260087074405
22 0.098520174148809
23 0.0
24 0.0
25 0.0
26 -0.001853254164282
27 0.015417872481546
28 0.055669213355363
29 -0.18542199915107
30 0.0
31 0.0
32 0.012793960047013
33 0.0
34 0.0
35 -0.064580246670166
36 0.0
37 0.0
38 0.17999262692625
39 -0.000096150418165
40 -0.000096150418165
41 0.000192300836330
42 0.0
43 0.0
44 0.0
45 0.003508865033048
46 0.003508865033048
47 -0.007017730066097
48 0.0
49 0.0
50 0.0
 Sym=     19.1
 Ene=       0.0719
 Spin= Alpha
 Occup=    0.000000
1 0.034062550087753
2 0.023584041907688
3 -1.07394836563056
4 0.52180384194219
5 0.0
6 0.0
7 -0.19957913390821
8 0.0
9 0.0
10 -1.34035489288418
11 0.0
12 0.0
13 0.59749217111385
14 -0.035179805281121
15 -0.035179805281121
16 0.070359610562242
17 0.0
18 0.0
19 0.0
20 0.11765465117139
21 0.11765465117139
22 -0.23530930234277
23 0.0
24 0.0
25 0.0
26 0.011286678538126
27 0.10907755252486
28 -0.076143591954972
29 0.80092710846826
30 0.0
31 0.0
32 -0.042202951466176
33 0.0
34 0.0
35 0.066157457273412
36 0.0
37 0.0
38 0.068043205185877
39 0.003448300002225
40 0.003448300002225
41 -0.006896600004450
42 0.0
43 0.0
44 0.0
45 0.011357261736236
46 0.011357261736236
47 -0.022714523472472
48 0.0
49 0.0
50 0.0
 Sym=     20.1
 Ene=       0.0737
 Spin= Alpha
 Occup=    0.000000
1 0.0
2 0.0
3 0.0
4 0.0
5 0.0
6 0.090631568120157
7 0.0
8 0.0
9 -1.47217309906894
10 0.0
11 0.0
12 0.59916328993384
13 0.0
14 0.0
15 0.0
16 0.0
17 0.0
18 0.0
19 0.022886336544089
20 0.0
21 0.0
22 0.0
23 0.0
24 0.0
25 -0.047374099724323
26 0.0
27 0.0
28 0.0
29 0.0
30 0.0
31 -0.047565731629129
32 0.0
33 0.0
34 0.022354435031835
35 0.0
36 0.0
37 0.41273160956613
38 0.0
39 0.0
40 0.0
41 0.0
42 0.0
43 0.0
44 -0.001550857222742
45 0.0
46 0.0
47 0.0
48 0.0
49 0.0
50 -0.010883702967934
 Sym=     21.1
 Ene=       0.0737
 Spin= Alpha
 Occup=    0.000000
1 0.0
2 0.0
3 0.0
4 0.0
5 0.090631568120148
6 0.0
7 0.0
8 -1.47217309906894
9 0.0
10 0.0
11 0.59916328993385
12 0.0
13 0.0
14 0.0
15 0.0
16 0.0
17 0.0
18 0.022886336544085
19 0.0
20 0.0
21 0.0
22 0.0
23 0.0
24 -0.047374099724323
25 0.0
26 0.0
27 0.0
28 0.0
29 0.0
30 -0.047565731629130
31 0.0
32 0.0
33 0.022354435031833
34 0.0
35 0.0
36 0.41273160956614
37 0.0
38 0.0
39 0.0
40 0.0
41 0.0
42 0.0
43 -0.001550857222742
44 0.0
45 0.0
46 0.0
47 0.0
48 0.0
49 -0.010883702967935
50 0.0
 Sym=     22.1
 Ene=       0.1909
 Spin= Alpha
 Occup=    0.000000
1 0.26420612875690
2 2.04094960013500
3 -3.38242876274732
4 0.81613033091489
5 0.0
6 0.0
7 -1.78261868050710
8 0.0
9 0.0
10 1.58940900463981
11 0.0
12 0.0
13 -0.19105111689074
14 0.17013902482333
15 0.17013902482333
16 -0.34027804964666
17 0.0
18 0.0
19 0.0
20 -0.24557360888539
21 -0.24557360888539
22 0.49114721777078
23 0.0
24 0.0
25 0.0
26 -0.000982128404878
27 0.009941294976042
28 0.004174134428202
29 0.69787156468774
30 0.0
31 0.0
32 -0.018095772765096
33 0.0
34 0.0
35 0.001943882967753
36 0.0
37 0.0
38 -0.38449757625444
39 0.002789372055359
40 0.002789372055359
41 -0.005578744110717
42 0.0
43 0.0
44 0.0
45 -0.015141217543680
46 -0.015141217543680
47 0.030282435087361
48 0.0
49 0.0
50 0.0
 Sym=     23.1
 Ene=       0.1909
 Spin= Alpha
 Occup=    0.000000
1 0.0
2 0.0
3 0.0
4 0.0
5 0.0
6 0.0
7 0.0
8 0.0
9 0.0
10 0.0
11 0.0
12 0.0
13 0.0
14 0.0
15 0.0
16 0.0
17 -0.72899869104627
18 0.0
19 0.0
20 0.0
21 0.0
22 0.0
23 1.62443473633956
24 0.0
25 0.0
26 0.0
27 0.0
28 0.0
29 0.0
30 0.0
31 0.0
32 0.0
33 0.0
34 0.0
35 0.0
36 0.0
37 0.0
38 0.0
39 0.0
40 0.0
41 0.0
42 0.001633535572706
43 0.0
44 0.0
45 0.0
46 0.0
47 0.0
48 0.013673196898805
49 0.0
50 0.0
 Sym=     24.1
 Ene=       0.1909
 Spin= Alpha
 Occup=    0.000000
1 0.0
2 0.0
3 0.0
4 0.0
5 0.0
6 0.0
7 0.0
8 0.0
9 0.0
10 0.0
11 0.0
12 0.0
13 0.0
14 -0.63133138577169
15 0.63133138577169
16 0.0
17 0.0
18 0.0
19 0.0
20 1.40680174845994
21 -1.40680174845994
22 0.0
23 0.0
24 0.0
25 0.0
26 0.0
27 0.0
28 0.0
29 0.0
30 0.0
31 0.0
32 0.0
33 0.0
34 0.0
35 0.0
36 0.0
37 0.0
38 0.0
39 0.001414683303949
40 -0.001414683303949
41 0.0
42 0.0
43 0.0
44 0.0
45 0.011841335865312