[Molden Format]
[Molpro variables]
_NUMVAR=  891.0000000000000    
_AVOGAD= 0.6022136736000000E+24
_BOLTZ= 0.1380658000000000E-22
_CLIGHT=  29979245800.00000    
_EV= 0.3674932379085202E-01
_ENULL= 0.8854187817000000E-11
_KJOULE= 0.3808798324128737E-03
_KJOULE/MOL= 0.3808798324128737E-03
_CM= 0.4556335267302901E-05
_CM-1= 0.4556335267302901E-05
_DEB2SI= 0.3335641000000000E-29
_AMU2AU=  1822.888390000000    
_KCAL= 0.1593601117815568E-02
_KCAL/MOL= 0.1593601117815568E-02
_KELVIN= 0.3166811411060229E-05
_JOULE= 0.4359748200000000E-17
_HERTZ= 0.1519829846004524E-15
_HZ= 0.1519829846004524E-15
_JPCAL=  4.184000000000000    
_PLANCK= 0.6626075540000000E-33
_TOA= 0.5291772109200000    
_TOANG= 0.5291772109200000    
_TORAD= 0.1745329251994330E-01
_TOCM=  219474.6306700000    
_TODEBYE=  2.541580000000000    
_TOE= 0.4803242000000000E-09
_TOEV=  27.21138505000000    
_TOHERTZ=  6579683920729000.    
_TOHZ=  6579683920729000.    
_TOK=  315775.0400000000    
_TOKCAL=  627.5096000000000    
_TOKELVIN=  315775.0400000000    
_TOKJ=  2625.500000000000    
_TOKJOULE=  2625.500000000000    
_TOKG= 0.1660565586000000E-26
_ANG=  1.889726124565062    
_ANGSTROM=  1.889726124565062    
_RPAREF=  0.000000000000000    
_RPADISS=  0.000000000000000    
_IGNORE_UNDEF=  2.000000000000000    
_STRICTCHECK=  0.000000000000000    
_SEW_ONEEL=  0.000000000000000    
_CPPDONE=FALSE
_DKROLL_DONE=  0.000000000000000    
_FOCKDONE=TRUE
_GRADONE=FALSE
_HESSDONE=FALSE
_INTDONE=TRUE
_SCFDONE=TRUE
_MODUL_BLOCK=TRUE
_MODUL_CUDA=FALSE
_MODUL_SLATER=FALSE
_MODUL_MRCC=FALSE
_MODUL_NBO6=FALSE
_MODUL_NECI=TRUE
_MODUL_AIMS=TRUE
_MRCC_EXEC=
_FITC_AO_SAVED=FALSE
_FITC_MO_SAVED=FALSE
_SHARED_FS=TRUE
_LSTYP=SEWARD
_INTYP=INTS
_GEOMTYP=ZMAT
_GRADTYP=ALASKA
_DIRECT=FALSE
_DKHO= -1.000000000000000    
_SYNCM=  0.000000000000000    
_BASIS=F=AVQZ,LI=VQZ
_ZUNIT=ANG
_ZORIENT=  0.000000000000000    
_NELEC=  12.00000000000000    
!SPIN=  0.000000000000000    
_QSDSTEP=  0.000000000000000    
_QSDIRC=  0.000000000000000    
_PROGRAM=MULTI
_CPUSTEP=  6.560000000000000    
_SYSSTEP= 0.5300000000000000    
_WALLSTEP=  7.120000000000000    
!DFSCF=  0.000000000000000    
!SCSGRD=  0.000000000000000    
_BASINP=  610.0000000000000    
_CARTESIAN=TRUE
_CPUTOT=  16.24000000000000    
_DFTEXFAC=  1.000000000000000    
_DMX=-0.4247599145294351E-17
_DMY=-0.1610699160807158E-15
_DMZ= -2.547915995892854    
_DMX_SCF= 0.1411859205959563E-14
_DMY_SCF= 0.1832648657437953E-14
_DMZ_SCF= -2.567448415629428    
_EHOMO=-0.4742858678246118    
_ELUMO=-0.8830816981323816E-02
_EIGS= -26.11033335999134    
_ENERGY= -107.0071256294346    
_ENERGY_METHOD=MULTI
_ENERGY_BASIS=F=AVQZ,LI=VQZ
_GEOMETRY_METHOD=
_GEOMETRY_BASIS=
_ENUC=  9.042901705594938    
_EPS1= -26.10997918223771    
_GRADEXFAC=  9999.000000000000    
_GRADMETHOD=TRUE
_NMRMETHOD=  0.000000000000000    
_NMRMAGNET=  0.000000000000000    
!GRID_FREEZE= -1.000000000000000    
_ITERATIONS=  6.000000000000000    
_LASTNELEC=  6.000000000000000    
_LASTSPIN=  0.000000000000000    
_LASTSYM=  1.000000000000000    
_MPP_PROG=  0.000000000000000    
_MSNSTATES=  0.000000000000000    
_RS2PHASE=  0.000000000000000    
_NPROC_MPP=  1.000000000000000    
_NPROC_MPPX=  1.000000000000000    
_NPROC_SMP=  1.000000000000000    
_NUMSTEP=  0.000000000000000    
_ORBITAL=  2140.200000000000    
_PI=  3.141592653589793    
!MCACT=  4.000000000000000    
!MCCLOSED=  3.000000000000000    
!MCFREEZE=  0.000000000000000    
!MCMS2=  0.000000000000000    
!MCNEL=  6.000000000000000    
!MCNSTSYM=  1.000000000000000    
!MCSTATE=  1.000000000000000    
!MCSYM=  1.000000000000000    
!MCWEIGHT=  1.000000000000000    
_SEIG_MIN= 0.4013202170647751E-05
_SEWPROP=TRUE
_STATUS=  1.000000000000000    
_SYSTOT=  1.660000000000000    
_VERSION=  2015001.000000000    
_WALLTOT=  17.99000000000000    
_DATE=12-Jul-23
_LASTORB=MCSCF
_MACHINE= 64 bit serial version
_OUTPUT=/scratch/5135395.1.multiway.q/lif-cartesian.xml
_PGROUP=C1
_TIME=21:10:25
_LIBMOL=/home/lambda/ajmk/chem1721/GroupPrograms/Molpro2015/molpro2015/lib/
_VIGRDC=  0.000000000000000    
!VIBCNT=  0.000000000000000    
!RGHFCNT=  0.000000000000000    
!SURFREC=  0.000000000000000    
!ROTREC=  0.000000000000000    
!POLYREC=  0.000000000000000    
!DIPREC=  0.000000000000000    
!DIP4DREC=  0.000000000000000    
!DIPROT=  0.000000000000000    
!DIP4DROT=  0.000000000000000    
!PTREC=  0.000000000000000    
!PT4DREC=  0.000000000000000    
!VSCFREC=  0.000000000000000    
!VCIREC=  0.000000000000000    
!PVCIREC=  0.000000000000000    
!VMP2REC=  0.000000000000000    
!VMCSCFREC=  0.000000000000000    
!VMRCIREC=  0.000000000000000    
!VIBSTATEREC=  0.000000000000000    
!VIBSTATECNT=  0.000000000000000    
!VIBINFO=  0.000000000000000    
!GAREC=  0.000000000000000    
!SCFORB=  21002.00000000000    
!MCORB=  21402.00000000000    
!NEWMOL= -1.000000000000000    
!NEWSYM= -1.000000000000000    
_SLFILES=slscratch
_NGSSTO=  9.000000000000000    
_SIN=SIN
_COS=COS
_TAN=TAN
_ACOS=ACOS
_ASIN=ASIN
_ATAN=ATAN
_COSH=COSH
_SINH=SINH
_TANH=TANH
_ABS=ABS
_MOD=MOD
_ERF=ERF
_REFC=REFC
_ERFC=ERFC
_HYPOT=HYPOT
_J0=J0
_J1=J1
_JN=JN
_GAMMA=GAMMA
_LGAMMA=LGAMMA
_Y0=Y0
_Y1=Y1
_YN=YN
_EXP=EXP
_LOG=LOG
_LOG10=LOG10
_SQRT=SQRT
_INT=INT
_NINT=NINT
_MAX=MAX
_MIN=MIN
_COSMO=  0.000000000000000    
_COSMOIT=  0.000000000000000    
_COSMOES=  0.000000000000000    
_COSMOEDS=  0.000000000000000    
_COSMOEC=  0.000000000000000    
_COSMOEDCORR=  0.000000000000000    
_FEPSI=  1.000000000000000    
_SL_IsMM=  0.000000000000000    
_SL_NSYM=  1.000000000000000    
_SL_System_BitSw=  0.000000000000000    
_SL_Unique_atoms=  0.000000000000000    
_SL_GRAD=  0.000000000000000    
_SL_MAXUPD_Hess=  5.000000000000000    
_SL_N_PRINT_COD=  5.000000000000000    
_SL_PRINT_CODES=  0.000000000000000    
_SL_BasType=  0.000000000000000    
_SL_Energy_Pred=  0.000000000000000    
_SL_New_Coords=  0.000000000000000    
_SL_Total_Nuclea=  0.000000000000000    
_SL_Highest_Mltp=  0.000000000000000    
_SL_Ref_Geom=  0.000000000000000    
_SL_Symmetry_ope=  1.000000000000000    
_SL_agrad=  0.000000000000000    
_SL_GrdMax=  0.000000000000000    
_SL_GrdNorm=  0.000000000000000    
_SL_GrdRMS=  0.000000000000000    
_SL_Hss_Q=  0.000000000000000    
_SL_Hss_X=  0.000000000000000    
_SL_BMxOld=  0.000000000000000    
_SL_KtB=  0.000000000000000    
_SL_TROld=  0.000000000000000    
_SL_No_of_Intern=  0.000000000000000    
_SL_Hess=  0.000000000000000    
_SL_K=  0.000000000000000    
!LATTICE= -1.000000000000000    
!NEWLATTICE=  0.000000000000000    
!LATGRAD_VAR=FALSE
!SEW_LATTICE=  1.000000000000000    
!LOCAL=  0.000000000000000    
!SAVEDOM= -1.000000000000000    
!RESTDOM= -1.000000000000000    
!SAVEDOM_HF= -1.000000000000000    
!RESTDOM_HF= -1.000000000000000    
!HESSREC=  0.000000000000000    
!FREQREC=  0.000000000000000    
!NMODREC=  0.000000000000000    
!GTASKS=  0.000000000000000    
!HTASKS=  0.000000000000000    
!SAVEDOM_EOM= -1.000000000000000    
!RESTDOM_EOM= -1.000000000000000    
!GRADSTATE= -1.000000000000000    
!THRCHG= 0.1000000000000000    
!DEBUG= -1.000000000000000    
!CFIT_CPHF=  0.000000000000000    
!RDOMAUX_CPHF=  3.000000000000000    
!THRAO_CPHF= 0.1000000000000000E-09
!THRMO_CPHF= 0.1000000000000000E-08
!THROV_CPHF= 0.1000000000000000E-11
!THRSW_CPHF= 0.1000000000000000E-09
!THRPROD_CPHF= 0.1000000000000000E-08
!THRAOPR_CPHF= 0.1000000000000000E-11
!CFIT_SCFGRD=  0.000000000000000    
!RDOMAUX_SCFGRD=  5.000000000000000    
!THRAO_SCFGRD= 0.1000000000000000E-09
!THRMO_SCFGRD= 0.1000000000000000E-08
!THROV_SCFGRD= 0.1000000000000000E-11
!THRSW_SCFGRD= 0.1000000000000000E-09
!THRPROD_SCFGRD= 0.1000000000000000E-08
!THRAOPR_SCFGRD= 0.1000000000000000E-11
!LOCFIT_SCF=  0.000000000000000    
!LOCFIT_MP2= -1.000000000000000    
_RIDOM=  0.000000000000000    
!CC2_METHOD=  0.000000000000000    
_BASIS2006=FALSE
_SVDDEL= -1.000000000000000    
_SVDDELA= -1.000000000000000    
_SVDDELP= -1.000000000000000    
_SVDDELF= -1.000000000000000    
_SVDDELS= -1.000000000000000    
_SVDDEL_ABS= -1.000000000000000    
_SVDDELA_ABS= -1.000000000000000    
_SVDDELP_ABS= -1.000000000000000    
_SVDDELF_ABS= -1.000000000000000    
_SVDDELS_ABS= -1.000000000000000    
_MAXBASIS=  0.000000000000000    
!OPT_CONICAL=  0.000000000000000    
!CLEARSP_JGRID=  0.000000000000000    
_GRDHYBR=  0.000000000000000    
_STATEGRAD=  1.000000000000000    
_4EXT_NDISKS=  1.000000000000000    
!ZMP=  0.000000000000000    
_MAXIT_ZMP=  500.0000000000000    
_MAXDIS_ZMP=  100.0000000000000    
_ACCU_ZMP=  14.00000000000000    
_SHIFTA_ZMP= -100.0000000000000    
!EMBEDFLAG=  1.000000000000000    
!EMBED=FALSE
!EMBED_F12=FALSE
!EMBEDNUC=  0.000000000000000    
_EMBEDENERGY=  0.000000000000000    
_KSPACETIME=  0.000000000000000    
_RSPACETIME=  0.000000000000000    
!EMBED_DFC=FALSE
!NUM_VOIDS=  0.000000000000000    
_IBODY=  0.000000000000000    
_EMBE_TOTAL=  0.000000000000000    
_EMBE_HF=  0.000000000000000    
_EMBE_CORR=  0.000000000000000    
!EMBED_PROJ=FALSE
!EMBED_TRUNC=  0.000000000000000    
!EMB_PROJ_ZMU=  1000000.000000000    
!CORRECTION=  0.000000000000000    
!CORRECTION_HF=  0.000000000000000    
!EMBED_ENERGY=  0.000000000000000    
!EMBED_NAXC=FALSE
!EMBED_AORB=  0.000000000000000    
!EMBED_NACORR=  0.000000000000000    
!EMBED_MP2=FALSE
!EMBED_TRUNC_PERTURBATION=FALSE
!EMBED_FROZEN=  0.000000000000000    
_CHANGE_BASIS=FALSE
_RESTORE_BASIS=FALSE
_FIX_EMBED_GUESS=FALSE
!EDFT=  0.000000000000000    
_IFASTLATGRAD=  0.000000000000000    
_SINDEX=  0.000000000000000    
_AVDOM_OSV=  0.000000000000000    
_AVDOM_PNO=  0.000000000000000    
_AVDOM_PAO=  0.000000000000000    
_AVDOM_LMO=  0.000000000000000    
_CC2OSV_FLAG=  0.000000000000000    
_TMADC2_FLAG=FALSE
_PROPADC2_FLAG=FALSE
_LEN_VirQ=  0.000000000000000    
_GRDCC2LR_FLAG=FALSE
_GRDADC2_FLAG=FALSE
_DMX_CC= 0.8569659632611414E-19
_DMY_CC= 0.8569658893897836E-19
_DMZ_CC= -3.899274099786827    
_DMX_NUC=  0.000000000000000    
_DMY_NUC=  0.000000000000000    
_DMZ_NUC=  8.957301830435998    
GEOMTYP=XYZ
GX1=  0.000000000000000    
GY1=  0.000000000000000    
GZ1=-0.7899999999999999    
GX2=  0.000000000000000    
GY2=  0.000000000000000    
GZ2= 0.7899999999999999    
[Atoms] Angs
LI    1    3         0.0000000000        0.0000000000       -0.7900000000
F     2    9         0.0000000000        0.0000000000        0.7900000000
[GTO]
   1 0
 s   12  1.00
  0.6601000000D+04  0.1169999349D-03
  0.9897000000D+03  0.9109994932D-03
  0.2257000000D+03  0.4727997370D-02
  0.6429000000D+02  0.1919698932D-01
  0.2118000000D+02  0.6304696492D-01
  0.7724000000D+01  0.1632079092D+00
  0.3003000000D+01  0.3148268248D+00
  0.1212000000D+01  0.3939357808D+00
  0.4930000000D+00  0.1969178904D+00
  0.9515000000D-01  0.9996994438D-02
  0.4791000000D-01 -0.5401996995D-02
  0.2220000000D-01  0.1703999052D-02
 s   12  1.00
  0.6601000000D+04 -0.1799999437D-04
  0.9897000000D+03 -0.1419999556D-03
  0.2257000000D+03 -0.7409997681D-03
  0.6429000000D+02 -0.3019999055D-02
  0.2118000000D+02 -0.1012299683D-01
  0.7724000000D+01 -0.2709399152D-01
  0.3003000000D+01 -0.5735898205D-01
  0.1212000000D+01 -0.9389497062D-01
  0.4930000000D+00 -0.1210909621D+00
  0.9515000000D-01  0.2766079135D+00
  0.4791000000D-01  0.5495478281D+00
  0.2220000000D-01  0.2773849132D+00
 s   12  1.00
  0.6601000000D+04  0.0000000000D+00
  0.9897000000D+03  0.0000000000D+00
  0.2257000000D+03  0.0000000000D+00
  0.6429000000D+02  0.0000000000D+00
  0.2118000000D+02  0.0000000000D+00
  0.7724000000D+01  0.0000000000D+00
  0.3003000000D+01  0.0000000000D+00
  0.1212000000D+01  0.0000000000D+00
  0.4930000000D+00  0.0000000000D+00
  0.9515000000D-01  0.1000000000D+01
  0.4791000000D-01  0.0000000000D+00
  0.2220000000D-01  0.0000000000D+00
 s   12  1.00
  0.6601000000D+04  0.0000000000D+00
  0.9897000000D+03  0.0000000000D+00
  0.2257000000D+03  0.0000000000D+00
  0.6429000000D+02  0.0000000000D+00
  0.2118000000D+02  0.0000000000D+00
  0.7724000000D+01  0.0000000000D+00
  0.3003000000D+01  0.0000000000D+00
  0.1212000000D+01  0.0000000000D+00
  0.4930000000D+00  0.0000000000D+00
  0.9515000000D-01  0.0000000000D+00
  0.4791000000D-01  0.1000000000D+01
  0.2220000000D-01  0.0000000000D+00
 s   12  1.00
  0.6601000000D+04  0.0000000000D+00
  0.9897000000D+03  0.0000000000D+00
  0.2257000000D+03  0.0000000000D+00
  0.6429000000D+02  0.0000000000D+00
  0.2118000000D+02  0.0000000000D+00
  0.7724000000D+01  0.0000000000D+00
  0.3003000000D+01  0.0000000000D+00
  0.1212000000D+01  0.0000000000D+00
  0.4930000000D+00  0.0000000000D+00
  0.9515000000D-01  0.0000000000D+00
  0.4791000000D-01  0.0000000000D+00
  0.2220000000D-01  0.1000000000D+01
 p    6  1.00
  0.6250000000D+01  0.3388000602D-02
  0.1370000000D+01  0.1931600343D-01
  0.3672000000D+00  0.7910401407D-01
  0.1192000000D+00  0.2740950487D+00
  0.4474000000D-01  0.5194880924D+00
  0.1795000000D-01  0.2844230506D+00
 p    6  1.00
  0.6250000000D+01  0.0000000000D+00
  0.1370000000D+01  0.0000000000D+00
  0.3672000000D+00  0.0000000000D+00
  0.1192000000D+00  0.1000000000D+01
  0.4474000000D-01  0.0000000000D+00
  0.1795000000D-01  0.0000000000D+00
 p    6  1.00
  0.6250000000D+01  0.0000000000D+00
  0.1370000000D+01  0.0000000000D+00
  0.3672000000D+00  0.0000000000D+00
  0.1192000000D+00  0.0000000000D+00
  0.4474000000D-01  0.1000000000D+01
  0.1795000000D-01  0.0000000000D+00
 p    6  1.00
  0.6250000000D+01  0.0000000000D+00
  0.1370000000D+01  0.0000000000D+00
  0.3672000000D+00  0.0000000000D+00
  0.1192000000D+00  0.0000000000D+00
  0.4474000000D-01  0.0000000000D+00
  0.1795000000D-01  0.1000000000D+01
 d    1  1.00
  0.3352000000D+00  0.1000000000D+01
 d    1  1.00
  0.1482000000D+00  0.1000000000D+01
 d    1  1.00
  0.6560000000D-01  0.1000000000D+01
 f    1  1.00
  0.2280000000D+00  0.1000000000D+01
 f    1  1.00
  0.1135000000D+00  0.1000000000D+01
 g    1  1.00
  0.2319000000D+00  0.1000000000D+01
  
   2 0
 s   12  1.00
  0.7453000000D+05  0.9500010373D-04
  0.1117000000D+05  0.7380008058D-03
  0.2543000000D+04  0.3858004212D-02
  0.7210000000D+03  0.1592601739D-01
  0.2359000000D+03  0.5428905928D-01
  0.8560000000D+02  0.1495131632D+00
  0.3355000000D+02  0.3082523366D+00
  0.1393000000D+02  0.3948534311D+00
  0.5915000000D+01  0.2110312304D+00
  0.1843000000D+01  0.1715101873D-01
  0.7124000000D+00 -0.2015002200D-02
  0.2637000000D+00  0.8690009488D-03
 s   12  1.00
  0.7453000000D+05 -0.2199999390D-04
  0.1117000000D+05 -0.1719999523D-03
  0.2543000000D+04 -0.8909997530D-03
  0.7210000000D+03 -0.3747998961D-02
  0.2359000000D+03 -0.1286199643D-01
  0.8560000000D+02 -0.3806098945D-01
  0.3355000000D+02 -0.8623897609D-01
  0.1393000000D+02 -0.1558649568D+00
  0.5915000000D+01 -0.1109139693D+00
  0.1843000000D+01  0.2987609172D+00
  0.7124000000D+00  0.5850128378D+00
  0.2637000000D+00  0.2711589248D+00
 s   12  1.00
  0.7453000000D+05  0.0000000000D+00
  0.1117000000D+05  0.0000000000D+00
  0.2543000000D+04  0.0000000000D+00
  0.7210000000D+03  0.0000000000D+00
  0.2359000000D+03  0.0000000000D+00
  0.8560000000D+02  0.0000000000D+00
  0.3355000000D+02  0.0000000000D+00
  0.1393000000D+02  0.0000000000D+00
  0.5915000000D+01  0.0000000000D+00
  0.1843000000D+01  0.1000000000D+01
  0.7124000000D+00  0.0000000000D+00
  0.2637000000D+00  0.0000000000D+00
 s   12  1.00
  0.7453000000D+05  0.0000000000D+00
  0.1117000000D+05  0.0000000000D+00
  0.2543000000D+04  0.0000000000D+00
  0.7210000000D+03  0.0000000000D+00
  0.2359000000D+03  0.0000000000D+00
  0.8560000000D+02  0.0000000000D+00
  0.3355000000D+02  0.0000000000D+00
  0.1393000000D+02  0.0000000000D+00
  0.5915000000D+01  0.0000000000D+00
  0.1843000000D+01  0.0000000000D+00
  0.7124000000D+00  0.1000000000D+01
  0.2637000000D+00  0.0000000000D+00
 s   12  1.00
  0.7453000000D+05  0.0000000000D+00
  0.1117000000D+05  0.0000000000D+00
  0.2543000000D+04  0.0000000000D+00
  0.7210000000D+03  0.0000000000D+00
  0.2359000000D+03  0.0000000000D+00
  0.8560000000D+02  0.0000000000D+00
  0.3355000000D+02  0.0000000000D+00
  0.1393000000D+02  0.0000000000D+00
  0.5915000000D+01  0.0000000000D+00
  0.1843000000D+01  0.0000000000D+00
  0.7124000000D+00  0.0000000000D+00
  0.2637000000D+00  0.1000000000D+01
 s    1  1.00
  0.8594000000D-01  0.1000000000D+01
 p    6  1.00
  0.8039000000D+02  0.6346999640D-02
  0.1863000000D+02  0.4420399749D-01
  0.5694000000D+01  0.1685139904D+00
  0.1953000000D+01  0.3615629795D+00
  0.6702000000D+00  0.4421779749D+00
  0.2166000000D+00  0.2434349862D+00
 p    6  1.00
  0.8039000000D+02  0.0000000000D+00
  0.1863000000D+02  0.0000000000D+00
  0.5694000000D+01  0.0000000000D+00
  0.1953000000D+01  0.1000000000D+01
  0.6702000000D+00  0.0000000000D+00
  0.2166000000D+00  0.0000000000D+00
 p    6  1.00
  0.8039000000D+02  0.0000000000D+00
  0.1863000000D+02  0.0000000000D+00
  0.5694000000D+01  0.0000000000D+00
  0.1953000000D+01  0.0000000000D+00
  0.6702000000D+00  0.1000000000D+01
  0.2166000000D+00  0.0000000000D+00
 p    6  1.00
  0.8039000000D+02  0.0000000000D+00
  0.1863000000D+02  0.0000000000D+00
  0.5694000000D+01  0.0000000000D+00
  0.1953000000D+01  0.0000000000D+00
  0.6702000000D+00  0.0000000000D+00
  0.2166000000D+00  0.1000000000D+01
 p    1  1.00
  0.6568000000D-01  0.1000000000D+01
 d    1  1.00
  0.5014000000D+01  0.1000000000D+01
 d    1  1.00
  0.1725000000D+01  0.1000000000D+01
 d    1  1.00
  0.5860000000D+00  0.1000000000D+01
 d    1  1.00
  0.2070000000D+00  0.1000000000D+01
 f    1  1.00
  0.3562000000D+01  0.1000000000D+01
 f    1  1.00
  0.1148000000D+01  0.1000000000D+01
 f    1  1.00
  0.4600000000D+00  0.1000000000D+01
 g    1  1.00
  0.2376000000D+01  0.1000000000D+01
 g    1  1.00
  0.9240000000D+00  0.1000000000D+01


[MO]
 Sym=      1.1
 Ene=     -26.1100
 Spin= Alpha
 Occup=    2.000000
1 0.000173929722463
2 -0.004474853064473
3 -0.001764551621645
4 0.001882114036097
5 0.001268341046287
6 0.0
7 0.0
8 -0.007479288345372
9 0.0
10 0.0
11 0.000647722744516
12 0.0
13 0.0
14 0.003556227700310
15 0.0
16 0.0
17 0.002162506532129
18 -0.000021551661682
19 -0.000021551670914
20 -0.000045880084670
21 0.0
22 0.0
23 0.0
24 0.000638668286851
25 0.000638668362597
26 -0.000517353932427
27 0.0
28 0.0
29 0.0
30 0.000113377620375
31 0.000113377658319
32 -0.000212277776980
33 0.0
34 0.0
35 0.0
36 0.0
37 0.0
38 -0.000486801893765
39 0.0
40 0.0
41 -0.000111338386755
42 0.0
43 0.0
44 -0.000111338434179
45 0.0
46 0.0
47 0.0
48 -0.000328147098773
49 0.0
50 0.0
51 0.000023150001772
52 0.0
53 0.0
54 0.000023150058550
55 0.0
56 -0.000149025621357
57 -0.000149025667872
58 -0.000167715786959
59 0.0
60 0.0
61 0.0
62 0.0
63 0.0
64 0.0
65 -0.000087260482607
66 -0.000048411415433
67 -0.000048411447808
68 0.0
69 0.0
70 0.0
71 1.00146930622203
72 0.002147033177950
73 0.000388893230897
74 -0.004830336105664
75 0.002797586371146
76 0.002317714853579
77 0.0
78 0.0
79 0.005756628679241
80 0.0
81 0.0
82 0.001489456579790
83 0.0
84 0.0
85 -0.000522815750070
86 0.0
87 0.0
88 -0.001372549767781
89 0.0
90 0.0
91 0.000061313952945
92 -0.000792018932685
93 -0.000792018878000
94 -0.000788105059270
95 0.0
96 0.0
97 0.0
98 0.001293443893235
99 0.001293443786544
100 0.001349292336514
101 0.0
102 0.0
103 0.0
104 -0.002265417831934
105 -0.002265417829214
106 -0.003342254740678
107 0.0
108 0.0
109 0.0
110 -0.000114336334243
111 -0.000114336359367
112 0.000039853569095
113 0.0
114 0.0
115 0.0
116 0.0
117 0.0
118 -0.000092391158809
119 0.0
120 0.0
121 -0.000039575514510
122 0.0
123 0.0
124 -0.000039575499363
125 0.0
126 0.0
127 0.0
128 0.000721983336138
129 0.0
130 0.0
131 0.000316460949046
132 0.0
133 0.0
134 0.000316460965429
135 0.0
136 0.0
137 0.0
138 0.001061446151619
139 0.0
140 0.0
141 0.000372317320095
142 0.0
143 0.0
144 0.000372317277721
145 0.0
146 -0.000907462289418
147 -0.000907462188822
148 -0.000848991560605
149 0.0
150 0.0
151 0.0
152 0.0
153 0.0
154 0.0
155 -0.000531355484855
156 -0.000521415625498
157 -0.000521415582134
158 0.0
159 0.0
160 0.0
161 0.001119035118756
162 0.001119035095785
163 0.001561773430021
164 0.0
165 0.0
166 0.0
167 0.0
168 0.0
169 0.0
170 0.000655239871793
171 0.000821383277106
172 0.000821383256676
173 0.0
174 0.0
175 0.0
 Sym=      2.1
 Ene=      -2.4317
 Spin= Alpha
 Occup=    2.000000
1 1.00759053687449
2 0.050047259995858
3 -0.014891870521180
4 -0.043042587555337
5 -0.015004947508629
6 0.0
7 0.0
8 -0.27398184621159
9 0.0
10 0.0
11 0.070624754579462
12 0.0
13 0.0
14 0.14146257922434
15 0.0
16 0.0
17 0.078060226393211
18 -0.001490836309634
19 -0.001490836468191
20 -0.017373949418782
21 0.0
22 0.0
23 0.0
24 -0.002068228808274
25 -0.002068227948188
26 0.004369601289577
27 0.0
28 0.0
29 0.0
30 0.004737995672026
31 0.004737995663580
32 0.004320526062101
33 0.0
34 0.0
35 0.0
36 0.0
37 0.0
38 -0.019792835156201
39 0.0
40 0.0
41 -0.001396848673226
42 0.0
43 0.0
44 -0.001396848876699
45 0.0
46 0.0
47 0.0
48 0.001381864601865
49 0.0
50 0.0
51 0.000733617462321
52 0.0
53 0.0
54 0.000733617551975
55 0.0
56 0.001991232685648
57 0.001991232134789
58 -0.014735013045301
59 0.0
60 0.0
61 0.0
62 0.0
63 0.0
64 0.0
65 0.001165946310086
66 -0.001684562506770
67 -0.001684562774946
68 0.0
69 0.0
70 0.0
71 -0.000301066846258
72 0.010726314224399
73 -0.001683432237307
74 -0.006615709165043
75 0.053151212071176
76 0.001755219852261
77 0.0
78 0.0
79 -0.000702907923870
80 0.0
81 0.0
82 -0.000154804822710
83 0.0
84 0.0
85 0.000432025269158
86 0.0
87 0.0
88 -0.017481646811236
89 0.0
90 0.0
91 0.000162193382632
92 -0.000039966864788
93 -0.000039966500541
94 0.000174733444146
95 0.0
96 0.0
97 0.0
98 -0.000168078300562
99 -0.000168080759935
100 -0.000089993140757
101 0.0
102 0.0
103 0.0
104 -0.006909091190211
105 -0.006909089973714
106 0.000644804368555
107 0.0
108 0.0
109 0.0
110 0.000119726100627
111 0.000119726084963
112 0.005974970078560
113 0.0
114 0.0
115 0.0
116 0.0
117 0.0
118 -0.000164311885523
119 0.0
120 0.0
121 -0.000068606845008
122 0.0
123 0.0
124 -0.000068607017603
125 0.0
126 0.0
127 0.0
128 -0.002072168283352
129 0.0
130 0.0
131 -0.000252207679918
132 0.0
133 0.0
134 -0.000252207690424
135 0.0
136 0.0
137 0.0
138 -0.002982903234676
139 0.0
140 0.0
141 -0.001062151397503
142 0.0
143 0.0
144 -0.001062151508252
145 0.0
146 0.000082119350184
147 0.000082120871097
148 0.000160070759771
149 0.0
150 0.0
151 0.0
152 0.0
153 0.0
154 0.0
155 0.000048084724314
156 -0.000057733467048
157 -0.000057733191692
158 0.0
159 0.0
160 0.0
161 0.001444593425525
162 0.001444592615120
163 -0.000446510387846
164 0.0
165 0.0
166 0.0
167 0.0
168 0.0
169 0.0
170 0.000845867101820
171 0.000211052064283
172 0.000211051767871
173 0.0
174 0.0
175 0.0
 Sym=      3.1
 Ene=      -1.1880
 Spin= Alpha
 Occup=    2.000000
1 -0.021271078945627
2 -0.085521884460106
3 -0.026499857885497
4 -0.005265303965257
5 0.024744446591032
6 0.0
7 0.0
8 -0.13826557394735
9 0.0
10 0.0
11 -0.028499534010329
12 0.0
13 0.0
14 0.064736227025797
15 0.0
16 0.0
17 0.039879522607748
18 -0.001340868646962
19 -0.001340868892012
20 0.002507239137084
21 0.0
22 0.0
23 0.0
24 0.014711365581357
25 0.014711366058262
26 -0.029630976568441
27 0.0
28 0.0
29 0.0
30 0.011955274418373
31 0.011955275529081
32 0.005870094601189
33 0.0
34 0.0
35 0.0
36 0.0
37 0.0
38 0.002475391351619
39 0.0
40 0.0
41 0.001735919902371
42 0.0
43 0.0
44 0.001735918802581
45 0.0
46 0.0
47 0.0
48 -0.002963386034642
49 0.0
50 0.0
51 0.002620351346938
52 0.0
53 0.0
54 0.002620351951004
55 0.0
56 -0.004043756767619
57 -0.004043757738519
58 0.008227044397529
59 0.0
60 0.0
61 0.0
62 0.0
63 0.0
64 0.0
65 -0.002367781800065
66 0.001529134885300
67 0.001529134427799
68 0.0
69 0.0
70 0.0
71 -0.005316651520640
72 0.86781256784276
73 0.010219104051445
74 0.028432046870019
75 -0.048799243798661
76 0.050315394987171
77 0.0
78 0.0
79 0.40523818912444
80 0.0
81 0.0
82 0.018793603577958
83 0.0
84 0.0
85 -0.073174812571006
86 0.0
87 0.0
88 -0.045311581816547
89 0.0
90 0.0
91 0.012302683141009
92 0.002282995864104
93 0.002282994381172
94 0.001998675535657
95 0.0
96 0.0
97 0.0
98 -0.002534613352080
99 -0.002534606878756
100 -0.003493624779056
101 0.0
102 0.0
103 0.0
104 0.061321480907365
105 0.061321476947717
106 0.056162637626009
107 0.0
108 0.0
109 0.0
110 0.021177720121101
111 0.021177719732834
112 0.023640070534473
113 0.0
114 0.0
115 0.0
116 0.0
117 0.0
118 0.001828179665440
119 0.0
120 0.0
121 0.000800826310342
122 0.0
123 0.0
124 0.000800826558102
125 0.0
126 0.0
127 0.0
128 0.036394860896212
129 0.0
130 0.0
131 0.016119930886656
132 0.0
133 0.0
134 0.016119930759444
135 0.0
136 0.0
137 0.0
138 0.029045988962885
139 0.0
140 0.0
141 0.012838243586130
142 0.0
143 0.0
144 0.012838243313766
145 0.0
146 0.001090213057570
147 0.001090208909806
148 0.001355070644845
149 0.0
150 0.0
151 0.0
152 0.0
153 0.0
154 0.0
155 0.000638361947721
156 0.000718064755768
157 0.000718063881508
158 0.0
159 0.0
160 0.0
161 -0.018200876220583
162 -0.018200874273393
163 -0.016444857525272
164 0.0
165 0.0
166 0.0
167 0.0
168 0.0
169 0.0
170 -0.010657341130956
171 -0.009957788281247
172 -0.009957787859760
173 0.0
174 0.0
175 0.0
 Sym=      4.1
 Ene=      -0.4769
 Spin= Alpha
 Occup=    1.999895
1 0.0
2 0.0
3 0.0
4 0.0
5 0.0
6 0.0
7 0.28433371917824
8 0.0
9 0.0
10 -0.031073794780263
11 0.0
12 0.0
13 -0.15217446895391
14 0.0
15 0.0
16 -0.081457923254478
17 0.0
18 0.0
19 0.0
20 0.0
21 0.0
22 0.0
23 -0.000818206052000
24 0.0
25 0.0
26 0.0
27 0.0
28 0.0
29 0.071208049435973
30 0.0
31 0.0
32 0.0
33 0.0
34 0.0
35 -0.003684444488719
36 0.0
37 -0.000940321628571
38 0.0
39 0.0
40 -0.000420524610590
41 0.0
42 0.0
43 0.009255624329103
44 0.0
45 0.0
46 0.0
47 -0.002437619589992
48 0.0
49 0.0
50 -0.001090136625937
51 0.0
52 0.0
53 0.010140694348668
54 0.0
55 0.0
56 0.0
57 0.0
58 0.0
59 0.0
60 0.0
61 0.0
62 -0.017791532321815
63 0.0
64 -0.011739028432747
65 0.0
66 0.0
67 0.0
68 -0.007956615142406
69 0.0
70 0.0
71 0.0
72 0.0
73 0.0
74 0.0
75 0.0
76 0.0
77 0.0
78 0.91728534766410
79 0.0
80 0.0
81 0.031430791819163
82 0.0
83 0.0
84 -0.12534183244746
85 0.0
86 0.0
87 -0.034326163381375
88 0.0
89 0.0
90 0.051250655251674
91 0.0
92 0.0
93 0.0
94 0.0
95 0.0
96 0.0
97 -0.000398187133928
98 0.0
99 0.0
100 0.0
101 0.0
102 0.0
103 -0.000606097271591
104 0.0
105 0.0
106 0.0
107 0.0
108 0.0
109 -0.031673743625271
110 0.0
111 0.0
112 0.0
113 0.0
114 0.0
115 0.004073800620845
116 0.0
117 0.004187660048303
118 0.0
119 0.0
120 0.001872778506026
121 0.0
122 0.0
123 0.001912409207022
124 0.0
125 0.0
126 0.0
127 0.066144661711137
128 0.0
129 0.0
130 0.029580791990616
131 0.0
132 0.0
133 0.031058012364729
134 0.0
135 0.0
136 0.0
137 0.050769332167052
138 0.0
139 0.0
140 0.022704735620958
141 0.0
142 0.0
143 0.027133066405750
144 0.0
145 0.0
146 0.0
147 0.0
148 0.0
149 0.0
150 0.0
151 0.0
152 0.000829893676203
153 0.0
154 0.001147509309114
155 0.0
156 0.0
157 0.0
158 0.000371139738968
159 0.0
160 0.0
161 0.0
162 0.0
163 0.0
164 0.0
165 0.0
166 0.0
167 0.008761628497156
168 0.0
169 0.005954896489974
170 0.0
171 0.0
172 0.0
173 0.003918319398622
174 0.0
175 0.0
 Sym=      7.1
 Ene=       1.5072
 Spin= Alpha
 Occup=    0.009684
1 0.023368344623234
2 1.11440170474536
3 -0.16361724767705
4 -0.67098032605962
5 -0.30364982289392
6 0.0
7 0.0
8 1.71898531199243
9 0.0
10 0.0
11 -0.55949987026775
12 0.0
13 0.0
14 -0.87323708215099
15 0.0
16 0.0
17 -0.48899417477553
18 -0.030755041461083
19 -0.030755038858986
20 0.044311744130784
21 0.0
22 0.0
23 0.0
24 0.015800478629555
25 0.015800470104055
26 -0.079486628440695
27 0.0
28 0.0
29 0.0
30 0.011837406204706
31 0.011837412402381
32 0.035728100941015
33 0.0
34 0.0
35 0.0
36 0.0
37 0.0
38 0.079841111079458
39 0.0
40 0.0
41 0.007740079386483
42 0.0
43 0.0
44 0.007740071272949
45 0.0
46 0.0
47 0.0
48 0.022262491700939
49 0.0
50 0.0
51 0.016985522235272
52 0.0
53 0.0
54 0.016985525498960
55 0.0
56 -0.013508183617390
57 -0.013508185681676
58 0.043282179008203
59 0.0
60 0.0
61 0.0
62 0.0
63 0.0
64 0.0
65 -0.007909583168665
66 -0.000770500366081
67 -0.000770502641077
68 0.0
69 0.0
70 0.0
71 -0.022095945567237
72 -0.63331238667141
73 -0.22708593242667
74 0.26692561470138
75 0.37483152680634
76 -0.12239478892357
77 0.0
78 0.0
79 1.15299924178147
80 0.0
81 0.0
82 0.30660013252629
83 0.0
84 0.0
85 -1.15850010568210
86 0.0
87 0.0
88 -0.89088759681535
89 0.0
90 0.0
91 -0.057842972745092
92 0.011249309421863
93 0.011249306468827
94 -0.043801926733255
95 0.0
96 0.0
97 0.0
98 0.077106198802616
99 0.077106221220022
100 -0.17026414679408
101 0.0
102 0.0
103 0.0
104 0.034192181189518
105 0.034192178809262
106 0.16648154148165
107 0.0
108 0.0
109 0.0
110 0.055962292192241
111 0.055962287918089
112 0.14671132628388
113 0.0
114 0.0
115 0.0
116 0.0
117 0.0
118 0.014925673668635
119 0.0
120 0.0
121 -0.019936052091239
122 0.0
123 0.0
124 -0.019936050324634
125 0.0
126 0.0
127 0.0
128 0.26156884541035
129 0.0
130 0.0
131 0.10658389380386
132 0.0
133 0.0
134 0.10658389147173
135 0.0
136 0.0
137 0.0
138 0.041810518397537
139 0.0
140 0.0
141 0.055558595162872
142 0.0
143 0.0
144 0.055558589752199
145 0.0
146 -0.017617508554937
147 -0.017617522511610
148 0.020054182889198
149 0.0
150 0.0
151 0.0
152 0.0
153 0.0
154 0.0
155 -0.010315762059111
156 0.006735062955440
157 0.006735061289741
158 0.0
159 0.0
160 0.0
161 0.013294532286149
162 0.013294530218758
163 -0.016148995114194
164 0.0
165 0.0
166 0.0
167 0.0
168 0.0
169 0.0
170 0.007784483167704
171 -0.006379313257389
172 -0.006379316100138
173 0.0
174 0.0
175 0.0
 Sym=      5.1
 Ene=      -0.4769
 Spin= Alpha
 Occup=    1.999895
1 0.0
2 0.0
3 0.0
4 0.0
5 0.0
6 0.28433371909730
7 0.0
8 0.0
9 -0.031073794747368
10 0.0
11 0.0
12 -0.15217446899404
13 0.0
14 0.0
15 -0.081457923210161
16 0.0
17 0.0
18 0.0
19 0.0
20 0.0
21 0.0
22 -0.000818206059600
23 0.0
24 0.0
25 0.0
26 0.0
27 0.0
28 0.071208049476197
29 0.0
30 0.0
31 0.0
32 0.0
33 0.0
34 -0.003684444537764
35 0.0
36 -0.000940321606251
37 0.0
38 0.0
39 -0.000420524613639
40 0.0
41 0.0
42 0.009255624332602
43 0.0
44 0.0
45 0.0
46 -0.002437619565159
47 0.0
48 0.0
49 -0.001090136606881
50 0.0
51 0.0
52 0.010140694351104
53 0.0
54 0.0
55 0.0
56 0.0
57 0.0