[Molden Format]
[Molpro variables]
_NUMVAR=  891.0000000000000    
_AVOGAD= 0.6022136736000000E+24
_BOLTZ= 0.1380658000000000E-22
_CLIGHT=  29979245800.00000    
_EV= 0.3674932379085202E-01
_ENULL= 0.8854187817000000E-11
_KJOULE= 0.3808798324128737E-03
_KJOULE/MOL= 0.3808798324128737E-03
_CM= 0.4556335267302901E-05
_CM-1= 0.4556335267302901E-05
_DEB2SI= 0.3335641000000000E-29
_AMU2AU=  1822.888390000000    
_KCAL= 0.1593601117815568E-02
_KCAL/MOL= 0.1593601117815568E-02
_KELVIN= 0.3166811411060229E-05
_JOULE= 0.4359748200000000E-17
_HERTZ= 0.1519829846004524E-15
_HZ= 0.1519829846004524E-15
_JPCAL=  4.184000000000000    
_PLANCK= 0.6626075540000000E-33
_TOA= 0.5291772109200000    
_TOANG= 0.5291772109200000    
_TORAD= 0.1745329251994330E-01
_TOCM=  219474.6306700000    
_TODEBYE=  2.541580000000000    
_TOE= 0.4803242000000000E-09
_TOEV=  27.21138505000000    
_TOHERTZ=  6579683920729000.    
_TOHZ=  6579683920729000.    
_TOK=  315775.0400000000    
_TOKCAL=  627.5096000000000    
_TOKELVIN=  315775.0400000000    
_TOKJ=  2625.500000000000    
_TOKJOULE=  2625.500000000000    
_TOKG= 0.1660565586000000E-26
_ANG=  1.889726124565062    
_ANGSTROM=  1.889726124565062    
_RPAREF=  0.000000000000000    
_RPADISS=  0.000000000000000    
_IGNORE_UNDEF=  2.000000000000000    
_STRICTCHECK=  0.000000000000000    
_SEW_ONEEL=  0.000000000000000    
_CPPDONE=FALSE
_DKROLL_DONE=  0.000000000000000    
_FOCKDONE=TRUE
_GRADONE=FALSE
_HESSDONE=FALSE
_INTDONE=TRUE
_SCFDONE=TRUE
_MODUL_BLOCK=TRUE
_MODUL_CUDA=FALSE
_MODUL_SLATER=FALSE
_MODUL_MRCC=FALSE
_MODUL_NBO6=FALSE
_MODUL_NECI=TRUE
_MODUL_AIMS=TRUE
_MRCC_EXEC=
_FITC_AO_SAVED=FALSE
_FITC_MO_SAVED=FALSE
_SHARED_FS=TRUE
_LSTYP=SEWARD
_INTYP=INTS
_GEOMTYP=ZMAT
_GRADTYP=ALASKA
_DIRECT=FALSE
_DKHO= -1.000000000000000    
_SYNCM=  0.000000000000000    
_BASIS=USERDEF
_ZUNIT=ANG
_ZORIENT=  0.000000000000000    
_NELEC=  12.00000000000000    
!SPIN=  0.000000000000000    
_QSDSTEP=  0.000000000000000    
_QSDIRC=  0.000000000000000    
_PROGRAM=MULTI
_CPUSTEP=  30.59000000000000    
_SYSSTEP=  1.970000000000000    
_WALLSTEP=  32.65000000000000    
!DFSCF=  0.000000000000000    
!SCSGRD=  0.000000000000000    
_BASINP=  610.0000000000000    
_CARTESIAN=TRUE
_CPUTOT=  36.74000000000000    
_DFTEXFAC=  1.000000000000000    
_DMX=-0.3225687016999111E-17
_DMY= 0.1946711455475898E-16
_DMZ= -2.588123703346190    
_DMX_SCF= 0.2075005691718819E-11
_DMY_SCF= 0.3804098273203773E-11
_DMZ_SCF= -2.567445180493273    
_EHOMO=-0.4742528950249288    
_ELUMO=-0.8174215310534746E-02
_EIGS= -26.11019576462914    
_ENERGY= -106.9836185542445    
_ENERGY_METHOD=MULTI
_ENERGY_BASIS=USERDEF
_GEOMETRY_METHOD=
_GEOMETRY_BASIS=
_ENUC=  9.042901705594938    
_EPS1= -25.97042266744213    
_GRADEXFAC=  9999.000000000000    
_GRADMETHOD=TRUE
_NMRMETHOD=  0.000000000000000    
_NMRMAGNET=  0.000000000000000    
!GRID_FREEZE= -1.000000000000000    
_ITERATIONS= -39.00000000000000    
_LASTNELEC=  6.000000000000000    
_LASTSPIN=  0.000000000000000    
_LASTSYM=  1.000000000000000    
_MPP_PROG=  0.000000000000000    
_MSNSTATES=  0.000000000000000    
_RS2PHASE=  0.000000000000000    
_NPROC_MPP=  1.000000000000000    
_NPROC_MPPX=  1.000000000000000    
_NPROC_SMP=  1.000000000000000    
_NUMSTEP=  0.000000000000000    
_ORBITAL=  2140.200000000000    
_PI=  3.141592653589793    
!MCACT=  4.000000000000000    
!MCCLOSED=  3.000000000000000    
!MCFREEZE=  0.000000000000000    
!MCMS2=  0.000000000000000    
!MCNEL=  6.000000000000000    
!MCNSTSYM=  1.000000000000000    
!MCSTATE=  1.000000000000000    
!MCSYM=  1.000000000000000    
!MCWEIGHT=  1.000000000000000    
_SEIG_MIN= 0.2598131942182940E-05
_SEWPROP=TRUE
_STATUS= -1.000000000000000    
_SYSTOT=  2.660000000000000    
_VERSION=  2015001.000000000    
_WALLTOT=  39.54000000000000    
_DATE=12-Jul-23
_LASTORB=MCSCF
_MACHINE= 64 bit serial version
_OUTPUT=/scratch/5135394.1.multiway.q/lif-nog.xml
_PGROUP=C1
_TIME=21:07:40
_LIBMOL=/home/lambda/ajmk/chem1721/GroupPrograms/Molpro2015/molpro2015/lib/
_VIGRDC=  0.000000000000000    
!VIBCNT=  0.000000000000000    
!RGHFCNT=  0.000000000000000    
!SURFREC=  0.000000000000000    
!ROTREC=  0.000000000000000    
!POLYREC=  0.000000000000000    
!DIPREC=  0.000000000000000    
!DIP4DREC=  0.000000000000000    
!DIPROT=  0.000000000000000    
!DIP4DROT=  0.000000000000000    
!PTREC=  0.000000000000000    
!PT4DREC=  0.000000000000000    
!VSCFREC=  0.000000000000000    
!VCIREC=  0.000000000000000    
!PVCIREC=  0.000000000000000    
!VMP2REC=  0.000000000000000    
!VMCSCFREC=  0.000000000000000    
!VMRCIREC=  0.000000000000000    
!VIBSTATEREC=  0.000000000000000    
!VIBSTATECNT=  0.000000000000000    
!VIBINFO=  0.000000000000000    
!GAREC=  0.000000000000000    
!SCFORB=  21002.00000000000    
!MCORB=  21402.00000000000    
!NEWMOL= -1.000000000000000    
!NEWSYM= -1.000000000000000    
_SLFILES=slscratch
_NGSSTO=  9.000000000000000    
_SIN=SIN
_COS=COS
_TAN=TAN
_ACOS=ACOS
_ASIN=ASIN
_ATAN=ATAN
_COSH=COSH
_SINH=SINH
_TANH=TANH
_ABS=ABS
_MOD=MOD
_ERF=ERF
_REFC=REFC
_ERFC=ERFC
_HYPOT=HYPOT
_J0=J0
_J1=J1
_JN=JN
_GAMMA=GAMMA
_LGAMMA=LGAMMA
_Y0=Y0
_Y1=Y1
_YN=YN
_EXP=EXP
_LOG=LOG
_LOG10=LOG10
_SQRT=SQRT
_INT=INT
_NINT=NINT
_MAX=MAX
_MIN=MIN
_COSMO=  0.000000000000000    
_COSMOIT=  0.000000000000000    
_COSMOES=  0.000000000000000    
_COSMOEDS=  0.000000000000000    
_COSMOEC=  0.000000000000000    
_COSMOEDCORR=  0.000000000000000    
_FEPSI=  1.000000000000000    
_SL_IsMM=  0.000000000000000    
_SL_NSYM=  1.000000000000000    
_SL_System_BitSw=  0.000000000000000    
_SL_Unique_atoms=  0.000000000000000    
_SL_GRAD=  0.000000000000000    
_SL_MAXUPD_Hess=  5.000000000000000    
_SL_N_PRINT_COD=  5.000000000000000    
_SL_PRINT_CODES=  0.000000000000000    
_SL_BasType=  0.000000000000000    
_SL_Energy_Pred=  0.000000000000000    
_SL_New_Coords=  0.000000000000000    
_SL_Total_Nuclea=  0.000000000000000    
_SL_Highest_Mltp=  0.000000000000000    
_SL_Ref_Geom=  0.000000000000000    
_SL_Symmetry_ope=  1.000000000000000    
_SL_agrad=  0.000000000000000    
_SL_GrdMax=  0.000000000000000    
_SL_GrdNorm=  0.000000000000000    
_SL_GrdRMS=  0.000000000000000    
_SL_Hss_Q=  0.000000000000000    
_SL_Hss_X=  0.000000000000000    
_SL_BMxOld=  0.000000000000000    
_SL_KtB=  0.000000000000000    
_SL_TROld=  0.000000000000000    
_SL_No_of_Intern=  0.000000000000000    
_SL_Hess=  0.000000000000000    
_SL_K=  0.000000000000000    
!LATTICE= -1.000000000000000    
!NEWLATTICE=  0.000000000000000    
!LATGRAD_VAR=FALSE
!SEW_LATTICE=  1.000000000000000    
!LOCAL=  0.000000000000000    
!SAVEDOM= -1.000000000000000    
!RESTDOM= -1.000000000000000    
!SAVEDOM_HF= -1.000000000000000    
!RESTDOM_HF= -1.000000000000000    
!HESSREC=  0.000000000000000    
!FREQREC=  0.000000000000000    
!NMODREC=  0.000000000000000    
!GTASKS=  0.000000000000000    
!HTASKS=  0.000000000000000    
!SAVEDOM_EOM= -1.000000000000000    
!RESTDOM_EOM= -1.000000000000000    
!GRADSTATE= -1.000000000000000    
!THRCHG= 0.1000000000000000    
!DEBUG= -1.000000000000000    
!CFIT_CPHF=  0.000000000000000    
!RDOMAUX_CPHF=  3.000000000000000    
!THRAO_CPHF= 0.1000000000000000E-09
!THRMO_CPHF= 0.1000000000000000E-08
!THROV_CPHF= 0.1000000000000000E-11
!THRSW_CPHF= 0.1000000000000000E-09
!THRPROD_CPHF= 0.1000000000000000E-08
!THRAOPR_CPHF= 0.1000000000000000E-11
!CFIT_SCFGRD=  0.000000000000000    
!RDOMAUX_SCFGRD=  5.000000000000000    
!THRAO_SCFGRD= 0.1000000000000000E-09
!THRMO_SCFGRD= 0.1000000000000000E-08
!THROV_SCFGRD= 0.1000000000000000E-11
!THRSW_SCFGRD= 0.1000000000000000E-09
!THRPROD_SCFGRD= 0.1000000000000000E-08
!THRAOPR_SCFGRD= 0.1000000000000000E-11
!LOCFIT_SCF=  0.000000000000000    
!LOCFIT_MP2= -1.000000000000000    
_RIDOM=  0.000000000000000    
!CC2_METHOD=  0.000000000000000    
_BASIS2006=FALSE
_SVDDEL= -1.000000000000000    
_SVDDELA= -1.000000000000000    
_SVDDELP= -1.000000000000000    
_SVDDELF= -1.000000000000000    
_SVDDELS= -1.000000000000000    
_SVDDEL_ABS= -1.000000000000000    
_SVDDELA_ABS= -1.000000000000000    
_SVDDELP_ABS= -1.000000000000000    
_SVDDELF_ABS= -1.000000000000000    
_SVDDELS_ABS= -1.000000000000000    
_MAXBASIS=  0.000000000000000    
!OPT_CONICAL=  0.000000000000000    
!CLEARSP_JGRID=  0.000000000000000    
_GRDHYBR=  0.000000000000000    
_STATEGRAD=  1.000000000000000    
_4EXT_NDISKS=  1.000000000000000    
!ZMP=  0.000000000000000    
_MAXIT_ZMP=  500.0000000000000    
_MAXDIS_ZMP=  100.0000000000000    
_ACCU_ZMP=  14.00000000000000    
_SHIFTA_ZMP= -100.0000000000000    
!EMBEDFLAG=  1.000000000000000    
!EMBED=FALSE
!EMBED_F12=FALSE
!EMBEDNUC=  0.000000000000000    
_EMBEDENERGY=  0.000000000000000    
_KSPACETIME=  0.000000000000000    
_RSPACETIME=  0.000000000000000    
!EMBED_DFC=FALSE
!NUM_VOIDS=  0.000000000000000    
_IBODY=  0.000000000000000    
_EMBE_TOTAL=  0.000000000000000    
_EMBE_HF=  0.000000000000000    
_EMBE_CORR=  0.000000000000000    
!EMBED_PROJ=FALSE
!EMBED_TRUNC=  0.000000000000000    
!EMB_PROJ_ZMU=  1000000.000000000    
!CORRECTION=  0.000000000000000    
!CORRECTION_HF=  0.000000000000000    
!EMBED_ENERGY=  0.000000000000000    
!EMBED_NAXC=FALSE
!EMBED_AORB=  0.000000000000000    
!EMBED_NACORR=  0.000000000000000    
!EMBED_MP2=FALSE
!EMBED_TRUNC_PERTURBATION=FALSE
!EMBED_FROZEN=  0.000000000000000    
_CHANGE_BASIS=FALSE
_RESTORE_BASIS=FALSE
_FIX_EMBED_GUESS=FALSE
!EDFT=  0.000000000000000    
_IFASTLATGRAD=  0.000000000000000    
_SINDEX=  0.000000000000000    
_AVDOM_OSV=  0.000000000000000    
_AVDOM_PNO=  0.000000000000000    
_AVDOM_PAO=  0.000000000000000    
_AVDOM_LMO=  0.000000000000000    
_CC2OSV_FLAG=  0.000000000000000    
_TMADC2_FLAG=FALSE
_PROPADC2_FLAG=FALSE
_LEN_VirQ=  0.000000000000000    
_GRDCC2LR_FLAG=FALSE
_GRDADC2_FLAG=FALSE
_DMX_CC=-0.2572504768892023E-17
_DMY_CC=-0.2389114975414604E-17
_DMZ_CC= -4.134916452998045    
_DMX_NUC=  0.000000000000000    
_DMY_NUC=  0.000000000000000    
_DMZ_NUC=  8.957301830435998    
GEOMTYP=XYZ
GX1=  0.000000000000000    
GY1=  0.000000000000000    
GZ1=-0.7899999999999999    
GX2=  0.000000000000000    
GY2=  0.000000000000000    
GZ2= 0.7899999999999999    
[Atoms] Angs
LI    1    3         0.0000000000        0.0000000000       -0.7900000000
F     2    9         0.0000000000        0.0000000000        0.7900000000
[GTO]
   1 0
 s    1  1.00
  0.6601000000D+04  0.1000000000D+01
 s    1  1.00
  0.9897000000D+03  0.1000000000D+01
 s    1  1.00
  0.2257000000D+03  0.1000000000D+01
 s    1  1.00
  0.6429000000D+02  0.1000000000D+01
 s    1  1.00
  0.2118000000D+02  0.1000000000D+01
 s    1  1.00
  0.7724000000D+01  0.1000000000D+01
 s    1  1.00
  0.3003000000D+01  0.1000000000D+01
 s    1  1.00
  0.1212000000D+01  0.1000000000D+01
 s    1  1.00
  0.4930000000D+00  0.1000000000D+01
 s    1  1.00
  0.9515000000D-01  0.1000000000D+01
 s    1  1.00
  0.4791000000D-01  0.1000000000D+01
 s    1  1.00
  0.2220000000D-01  0.1000000000D+01
 p    1  1.00
  0.6250000000D+01  0.1000000000D+01
 p    1  1.00
  0.1370000000D+01  0.1000000000D+01
 p    1  1.00
  0.3672000000D+00  0.1000000000D+01
 p    1  1.00
  0.1192000000D+00  0.1000000000D+01
 p    1  1.00
  0.4474000000D-01  0.1000000000D+01
 p    1  1.00
  0.1795000000D-01  0.1000000000D+01
 d    1  1.00
  0.3352000000D+00  0.1000000000D+01
 d    1  1.00
  0.1482000000D+00  0.1000000000D+01
 d    1  1.00
  0.6560000000D-01  0.1000000000D+01
 f    1  1.00
  0.2280000000D+00  0.1000000000D+01
 f    1  1.00
  0.1135000000D+00  0.1000000000D+01
  
   2 0
 s    1  1.00
  0.7453000000D+05  0.1000000000D+01
 s    1  1.00
  0.1117000000D+05  0.1000000000D+01
 s    1  1.00
  0.2543000000D+04  0.1000000000D+01
 s    1  1.00
  0.7210000000D+03  0.1000000000D+01
 s    1  1.00
  0.2359000000D+03  0.1000000000D+01
 s    1  1.00
  0.8560000000D+02  0.1000000000D+01
 s    1  1.00
  0.3355000000D+02  0.1000000000D+01
 s    1  1.00
  0.1393000000D+02  0.1000000000D+01
 s    1  1.00
  0.5915000000D+01  0.1000000000D+01
 s    1  1.00
  0.1843000000D+01  0.1000000000D+01
 s    1  1.00
  0.7124000000D+00  0.1000000000D+01
 s    1  1.00
  0.2637000000D+00  0.1000000000D+01
 s    1  1.00
  0.8594000000D-01  0.1000000000D+01
 p    1  1.00
  0.8039000000D+02  0.1000000000D+01
 p    1  1.00
  0.1863000000D+02  0.1000000000D+01
 p    1  1.00
  0.5694000000D+01  0.1000000000D+01
 p    1  1.00
  0.1953000000D+01  0.1000000000D+01
 p    1  1.00
  0.6702000000D+00  0.1000000000D+01
 p    1  1.00
  0.2166000000D+00  0.1000000000D+01
 p    1  1.00
  0.6568000000D-01  0.1000000000D+01
 d    1  1.00
  0.5014000000D+01  0.1000000000D+01
 d    1  1.00
  0.1725000000D+01  0.1000000000D+01
 d    1  1.00
  0.5860000000D+00  0.1000000000D+01
 d    1  1.00
  0.2070000000D+00  0.1000000000D+01
 f    1  1.00
  0.3562000000D+01  0.1000000000D+01
 f    1  1.00
  0.1148000000D+01  0.1000000000D+01
 f    1  1.00
  0.4600000000D+00  0.1000000000D+01


[MO]
 Sym=      1.1
 Ene=     -25.9704
 Spin= Alpha
 Occup=    2.000000
1 -0.000000513999498
2 0.000026815072532
3 -0.000003830599226
4 0.000086967119030
5 0.000232198130500
6 0.000700524983958
7 0.001559350554316
8 0.002126439167059
9 0.016765085662137
10 0.007405933726621
11 -0.11474625726777
12 0.003538706347973
13 0.0
14 0.0
15 -0.000199382794694
16 0.0
17 0.0
18 -0.000957891823371
19 0.0
20 0.0
21 -0.007576948934149
22 0.0
23 0.0
24 0.006000530107074
25 0.0
26 0.0
27 -0.000049897610357
28 0.0
29 0.0
30 -0.002327930083806
31 0.006611688576234
32 0.006573804185565
33 0.003920973803060
34 0.0
35 0.0
36 0.0
37 0.012998252701167
38 0.012630193399670
39 0.014592681137653
40 0.0
41 0.0
42 0.0
43 0.026200971235017
44 0.026890822174560
45 0.024763522378633
46 0.0
47 0.0
48 0.0
49 0.0
50 0.0
51 -0.004185635860789
52 0.0
53 0.0
54 -0.002007088059285
55 0.0
56 0.0
57 -0.001558919308272
58 0.0
59 0.0
60 0.0
61 -0.001184331149030
62 0.0
63 0.0
64 -0.001218361828568
65 0.0
66 0.0
67 -0.002560015752993
68 0.0
69 0.000095835075797
70 0.000744060712366
71 0.003887848769387
72 0.016053880192289
73 0.054756381972673
74 0.15081145187708
75 0.31173265268482
76 0.39966306781677
77 0.21208816970556
78 0.010057620720351
79 -0.019358880324841
80 -0.009312881941079
81 0.016179792087734
82 0.0
83 0.0
84 0.000328770338887
85 0.0
86 0.0
87 0.002281771815880
88 0.0
89 0.0
90 0.008649067998097
91 0.0
92 0.0
93 0.021477426328091
94 0.0
95 0.0
96 0.015648754525198
97 0.0
98 0.0
99 0.006819681960787
100 0.0
101 0.0
102 -0.001506243585611
103 -0.002298693475738
104 -0.002310534252700
105 -0.002347704720531
106 0.0
107 0.0
108 0.0
109 -0.004659291727942
110 -0.004646081239862
111 -0.004876456612267
112 0.0
113 0.0
114 0.0
115 -0.002355236299354
116 -0.002454126377470
117 -0.003900697823206
118 0.0
119 0.0
120 0.0
121 -0.002234001403093
122 -0.002169537873523
123 -0.000776149801794
124 0.0
125 0.0
126 0.0
127 0.0
128 0.0
129 0.000070314473945
130 0.0
131 0.0
132 0.000049862529960
133 0.0
134 0.0
135 0.000049496647013
136 0.0
137 0.0
138 0.0
139 0.004515341415233
140 0.0
141 0.0
142 0.001885503294345
143 0.0
144 0.0
145 0.001804393527602
146 0.0
147 0.0
148 0.0
149 0.004305283501111
150 0.0
151 0.0
152 0.001715989506556
153 0.0
154 0.0
155 0.001943903240338
156 0.0
 Sym=      2.1
 Ene=      -2.4364
 Spin= Alpha
 Occup=    2.000000
1 -0.000116768477163
2 -0.000915261678473
3 -0.004732896643413
4 -0.019181007989767
5 -0.063269356186128
6 -0.16304514629883
7 -0.31614575330437
8 -0.39433967005837
9 -0.093598221109249
10 0.095848196222120
11 -0.68044877862578
12 0.023666297695235
13 0.0
14 0.0
15 0.000703150163215
16 0.0
17 0.0
18 0.004934740781149
19 0.0
20 0.0
21 0.038553614862087
22 0.0
23 0.0
24 -0.047080298746568
25 0.0
26 0.0
27 -0.013815425946903
28 0.0
29 0.0
30 0.003492274372985
31 0.044712798266791
32 0.043432537284265
33 0.049210717458274
34 0.0
35 0.0
36 0.0
37 0.080488081294396
38 0.083539179598671
39 0.10229037857799
40 0.0
41 0.0
42 0.0
43 0.14949596954259
44 0.14994488328338
45 0.14865138889433
46 0.0
47 0.0
48 0.0
49 0.0
50 0.0
51 0.032657331477677
52 0.0
53 0.0
54 0.015005327035931
55 0.0
56 0.0
57 0.018047469138698
58 0.0
59 0.0
60 0.0
61 0.023015040363369
62 0.0
63 0.0
64 0.003218604532227
65 0.0
66 0.0
67 0.004308189364819
68 0.0
69 -0.000000441769348
70 -0.000003106168790
71 -0.000017911020439
72 -0.000077932975175
73 -0.000275472814259
74 -0.000768013646337
75 -0.001792301566092
76 -0.003337233767066
77 -0.002340589422700
78 0.009012597110436
79 0.005796374754502
80 -0.031417964695916
81 0.027063165223479
82 0.0
83 0.0
84 -0.000087112686771
85 0.0
86 0.0
87 -0.000667027648396
88 0.0
89 0.0
90 -0.003079393280081
91 0.0
92 0.0
93 -0.005847291648000
94 0.0
95 0.0
96 -0.000491528863134
97 0.0
98 0.0
99 0.047382205872598
100 0.0
101 0.0
102 -0.006437999492112
103 -0.000207419512655
104 -0.000121760969542
105 -0.000133225662494
106 0.0
107 0.0
108 0.0
109 0.000965930541065
110 0.000686962186936
111 -0.000268835131930
112 0.0
113 0.0
114 0.0
115 0.000632513750983
116 0.000767375021951
117 -0.000130619233087
118 0.0
119 0.0
120 0.0
121 -0.012750742900307
122 -0.014869831558141
123 -0.029687518120395
124 0.0
125 0.0
126 0.0
127 0.0
128 0.0
129 -0.001400407526519
130 0.0
131 0.0
132 -0.000761429926649
133 0.0
134 0.0
135 -0.000558471043877
136 0.0
137 0.0
138 0.0
139 -0.005619007487322
140 0.0
141 0.0
142 -0.002599548798554
143 0.0
144 0.0
145 -0.003266303538893
146 0.0
147 0.0
148 0.0
149 -0.010319739387497
150 0.0
151 0.0
152 -0.006012646511983
153 0.0
154 0.0
155 -0.004661455128344
156 0.0
 Sym=      3.1
 Ene=      -0.9782
 Spin= Alpha
 Occup=    2.000000
1 -0.000004426167778
2 -0.000015840696346
3 -0.000094459317796
4 -0.000522520872540
5 -0.000958439071297
6 -0.005060714083168
7 -0.005637804687522
8 -0.012918158466241
9 -0.27270615080757
10 -1.00505505950529
11 3.49588947883879
12 -0.11718875067373
13 0.0
14 0.0
15 0.001218746483215
16 0.0
17 0.0
18 0.006930503930251
19 0.0
20 0.0
21 -0.035101413474035
22 0.0
23 0.0
24 0.32337384764392
25 0.0
26 0.0
27 0.079397272288698
28 0.0
29 0.0
30 0.028193661272775
31 -0.12464894921293
32 -0.12141482244611
33 -0.088151039248305
34 0.0
35 0.0
36 0.0
37 -0.22333694224713
38 -0.21924017005023
39 -0.28900226222961
40 0.0
41 0.0
42 0.0
43 -0.76051692583400
44 -0.78359989237950
45 -0.72694720243586
46 0.0
47 0.0
48 0.0
49 0.0
50 0.0
51 -0.10998071236861
52 0.0
53 0.0
54 -0.040571200076580
55 0.0
56 0.0
57 -0.058556504511047
58 0.0
59 0.0
60 0.0
61 -0.11565761599357
62 0.0
63 0.0
64 -0.028769235522473
65 0.0
66 0.0
67 -0.002702756673128
68 0.0
69 0.000016437323997
70 0.000125825578838
71 0.000668354361502
72 0.002768022023483
73 0.009697960213656
74 0.028008736281483
75 0.065552653114916
76 0.11234887234274
77 0.075316052293671
78 -0.21463191071329
79 -0.35514069910545
80 -0.16385059307909
81 -0.39773646921189
82 0.0
83 0.0
84 -0.003756111856611
85 0.0
86 0.0
87 -0.026526674489558
88 0.0
89 0.0
90 -0.093835237890303
91 0.0
92 0.0
93 -0.27276401589449
94 0.0
95 0.0
96 -0.13303882836066
97 0.0
98 0.0
99 -0.076972361322025
100 0.0
101 0.0
102 0.056985765306148
103 -0.005736071599236
104 -0.005617743651630
105 -0.005802237462733
106 0.0
107 0.0
108 0.0
109 -0.013608558017359
110 -0.014356671444660
111 -0.011039074237028
112 0.0
113 0.0
114 0.0
115 -0.002398051326222
116 -0.000048686431352
117 -0.003378080126436
118 0.0
119 0.0
120 0.0
121 0.050089118740185
122 0.055691710189773
123 0.038699627117768
124 0.0
125 0.0
126 0.0
127 0.0
128 0.0
129 0.007517379005010
130 0.0
131 0.0
132 0.002869901378814
133 0.0
134 0.0
135 0.002776036537169
136 0.0
137 0.0
138 0.0
139 -0.063487226241452
140 0.0
141 0.0
142 -0.029352295991161
143 0.0
144 0.0
145 -0.025024728040120
146 0.0
147 0.0
148 0.0
149 -0.052059800958349
150 0.0
151 0.0
152 -0.022016952873034
153 0.0
154 0.0
155 -0.033374756860314
156 0.0
 Sym=      4.1
 Ene=      -0.4766
 Spin= Alpha
 Occup=    2.000000
1 0.0
2 0.0
3 0.0
4 0.0
5 0.0
6 0.0
7 0.0
8 0.0
9 0.0
10 0.0
11 0.0
12 0.0
13 0.001038221775401
14 0.0
15 0.0
16 0.004948861205674
17 0.0
18 0.0
19 0.040830067909106
20 0.0
21 0.0
22 -0.027090097267748
23 0.0
24 0.0
25 -0.010499224741183
26 0.0
27 0.0
28 0.000547242324541
29 0.0
30 0.0
31 0.0
32 0.0
33 0.0
34 0.0
35 0.009985714968244
36 0.0
37 0.0
38 0.0
39 0.0
40 0.0
41 0.014856346712049
42 0.0
43 0.0
44 0.0
45 0.0
46 0.0
47 0.005201534918328
48 0.0
49 0.022632376486992
50 0.0
51 0.0
52 0.010097346959877
53 0.0
54 0.0
55 0.016866803607671
56 0.0
57 0.0
58 0.0
59 0.018003404219804
60 0.0
61 0.0
62 0.008103246364088
63 0.0
64 0.0
65 0.013110517598254
66 0.0
67 0.0
68 0.0
69 0.0
70 0.0
71 0.0
72 0.0
73 0.0
74 0.0
75 0.0
76 0.0
77 0.0
78 0.0
79 0.0
80 0.0
81 0.0
82 0.005789966331083
83 0.0
84 0.0
85 0.040743014745282
86 0.0
87 0.0
88 0.15350569757768
89 0.0
90 0.0
91 0.36179240281582
92 0.0
93 0.0
94 0.29206596022297
95 0.0
96 0.0
97 0.21629979234868
98 0.0
99 0.0
100 0.050879727762492
101 0.0
102 0.0
103 0.0
104 0.0
105 0.0
106 0.0
107 -0.000597311716389
108 0.0
109 0.0
110 0.0
111 0.0
112 0.0
113 -0.001516508633224
114 0.0
115 0.0
116 0.0
117 0.0
118 0.0
119 -0.012161213089597
120 0.0
121 0.0
122 0.0
123 0.0
124 0.0
125 -0.004205948908560
126 0.0
127 0.002712357982321
128 0.0
129 0.0
130 0.001215336951681
131 0.0
132 0.0
133 0.001176998468316
134 0.0
135 0.0
136 0.0
137 0.058543145083539
138 0.0
139 0.0
140 0.026185746730077
141 0.0
142 0.0
143 0.027860733408828
144 0.0
145 0.0
146 0.0
147 0.043408443365296
148 0.0
149 0.0
150 0.019369434150381
151 0.0
152 0.0
153 0.023608486180477
154 0.0
155 0.0
156 0.0
 Sym=      7.1
 Ene=      15.3690
 Spin= Alpha
 Occup=    0.000001
1 0.020566012516957
2 0.024648088678813
3 -0.068499117505779
4 0.20300776775062
5 -0.088272027584587
6 -0.28401060592051
7 0.75720314590136
8 -1.46202499618552
9 22.7474023705764
10 -57.0555444887026
11 -45.2875441316200
12 1.00782585839761
13 0.0
14 0.0
15 -0.077611546490099
16 0.0
17 0.0
18 0.19883672634071
19 0.0
20 0.0
21 -1.12748052146837
22 0.0
23 0.0
24 -6.62424186279117
25 0.0
26 0.0
27 0.32506866962146
28 0.0
29 0.0
30 -0.73332832630516
31 8.48070566666612
32 8.21339187838214
33 9.92220107263629
34 0.0
35 0.0
36 0.0
37 20.6151158345195
38 20.9445327075555
39 13.8762915759309
40 0.0
41 0.0
42 0.0
43 12.0335623501205
44 12.2522355630410
45 10.1634519159397
46 0.0
47 0.0
48 0.0
49 0.0
50 0.0
51 -0.27536537370481
52 0.0
53 0.0
54 -0.40580484002012
55 0.0
56 0.0
57 -0.84039131966256
58 0.0
59 0.0
60 0.0
61 -3.48228453678415
62 0.0
63 0.0
64 -0.11213113529388
65 0.0
66 0.0
67 0.87318761594648
68 0.0
69 -0.004073282538768
70 0.024986351237854
71 -0.043735903556829
72 0.060483068709241
73 -0.010725156344137
74 -0.052356812725569
75 -0.25556246337703
76 1.24221537374977
77 0.33857940245696
78 -1.36409929286265
79 -4.11257600907992
80 4.23849713357647
81 4.01222863653007
82 0.0
83 0.0
84 0.013609725756799
85 0.0
86 0.0
87 0.051000616606135
88 0.0
89 0.0
90 -0.091204830676405
91 0.0
92 0.0
93 1.33927384218657
94 0.0
95 0.0
96 -0.93938237684186
97 0.0
98 0.0
99 -8.38959510152959
100 0.0
101 0.0
102 0.17355545927011
103 1.06665644176097
104 0.87050384385824
105 0.77540308149863
106 0.0
107 0.0
108 0.0
109 1.46837350643789
110 1.59104160041885
111 1.73308524413245
112 0.0
113 0.0
114 0.0
115 1.56026226362185
116 1.64791275472848
117 1.54535972078157
118 0.0
119 0.0
120 0.0
121 3.12798378650012
122 2.83233829277881
123 3.23220925101706
124 0.0
125 0.0
126 0.0
127 0.0
128 0.0
129 -0.39856056292522
130 0.0
131 0.0
132 -0.022764708750737
133 0.0
134 0.0
135 -0.11956971825513
136 0.0
137 0.0
138 0.0
139 1.20589161694177
140 0.0
141 0.0
142 0.035599943416880
143 0.0
144 0.0
145 0.40655903150173
146 0.0
147 0.0
148 0.0
149 1.99609643265115
150 0.0
151 0.0
152 1.13999975520395
153 0.0
154 0.0
155 1.01800999171128
156 0.0
 Sym=      5.1
 Ene=      -0.4766
 Spin= Alpha
 Occup=    2.000000
1 0.0
2 0.0
3 0.0
4 0.0
5 0.0
6 0.0
7 0.0
8 0.0
9 0.0
10 0.0
11 0.0
12 0.0
13 0.0
14 -0.001038357864196
15 0.0
16 0.0
17 -0.004949427169180
18 0.0
19 0.0
20 -0.040796209231709
21 0.0
22 0.0
23 0.026646848905455
24 0.0
25 0.0
26 0.010304965610724
27 0.0
28 0.0
29 -0.000544691773990
30 0.0
31 0.0
32 0.0
33 0.0
34 0.0
35 0.0
36 -0.010009857023594
37 0.0
38 0.0
39 0.0
40 0.0
41 0.0
42 -0.015102192726685
43 0.0
44 0.0
45 0.0
46 0.0
47 0.0
48 -0.005231030170682
49 0.0
50 -0.022523081288202
51 0.0
52 0.0
53 -0.010096265748486
54 0.0
55 0.0
56 -0.016917086513474
57 0.0
58 0.0
59 0.0
60 -0.017988236612736
61 0.0
62 0.0
63 -0.007993610124143
64 0.0
65 0.0
66 -0.013093931760289
67 0.0
68 0.0
69 0.0
70 0.0
71 0.0
72 0.0
73 0.0
74 0.0
75 0.0
76 0.0
77 0.0
78 0.0
79 0.0
80 0.0
81 0.0
82 0.0
83 -0.005790487401341
84 0.0
85 0.0
86 -0.040747374786479
87 0.0
88 0.0
89 -0.15350605981518
90 0.0
91 0.0
92 -0.36196629627529
93 0.0
94 0.0
95 -0.29182256411070
96 0.0
97 0.0
98 -0.21564080360458
99 0.0
100 0.0
101 -0.050728386061903
102 0.0
103 0.0
104 0.0
105 0.0
106 0.0
107 0.0
108 0.000598174615215
109 0.0
110 0.0
111 0.0
112 0.0
113 0.0
114 0.001558621389259
115 0.0
116 0.0
117 0.0
118 0.0
119 0.0
120 0.012203205576253
121 0.0
122 0.0
123 0.0
124 0.0
125 0.0
126 0.004031497947413
127 0.0
128 -0.002703075710471
129 0.0
130 0.0
131 -0.001205807533413
132 0.0
133 0.0
134 -0.001169585951774
135 0.0
136 0.0
137 0.0
138 -0.058690560535233
139 0.0
140 0.0
141 -0.026243610202934
142 0.0
143 0.0
144 -0.027922053891705
145 0.0
146 0.0
147 0.0
148 -0.043534948657470
149 0.0
150 0.0
151 -0.019511646908743
152 0.0
153 0.0
154 -0.023732799524655
155 0.0
156 0.0
 Sym=      6.1
 Ene=      -1.0425
 Spin= Alpha
 Occup=    1.999999
1 -0.000003439559074
2 -0.000051210959608
3 -0.000255812924233
4 -0.001042023946291
5 -0.003581186386352
6 -0.009395650915810
7 -0.022294702404643
8 -0.029078468787302
9 -0.23465159367527
10 -0.094803609541752
11 1.57873789382471
12 -0.048694282694161
13 0.0
14 0.0
15 0.002644984469174
16 0.0
17 0.0
18 0.012999943028241
19 0.0
20 0.0
21 0.096760142934360
22 0.0
23 0.0
24 -0.066002051865036
25 0.0
26 0.0
27 0.001515795581516
28 0.0
29 0.0
30 0.031258704688874
31 -0.092134475936737
32 -0.091470343974247
33 -0.057447513293950
34 0.0
35 0.0
36 0.0
37 -0.18193856807915
38 -0.17722346725062
39 -0.20059214968305
40 0.0
41 0.0
42 0.0
43 -0.36066313176939
44 -0.37037677500493
45 -0.34094311478798
46 0.0
47 0.0
48 0.0
49 0.0
50 0.0
51 0.051610173504646
52 0.0
53 0.0
54 0.024885915823080
55 0.0
56 0.0
57 0.018766155646702
58 0.0
59 0.0
60 0.0
61 0.013689856232266
62 0.0
63 0.0
64 0.014945094850259
65 0.0
66 0.0
67 0.032397717225405
68 0.0
69 -0.000006280066589
70 -0.000047681953013
71 -0.000253590050522
72 -0.001071170011221
73 -0.003835503610220
74 -0.011603323826282
75 -0.030563008655274
76 -0.060296449394018
77 -0.041538900025978
78 0.17074270463117
79 0.31807739615135
80 0.14495960310246
81 -0.21207029111977
82 0.0
83 0.0
84 -0.004455969794673
85 0.0
86 0.0
87 -0.031350199682505
88 0.0
89 0.0
90 -0.11705782265538
91 0.0
92 0.0
93 -0.28759893097412
94 0.0
95 0.0
96 -0.21258367230842
97 0.0
98 0.0
99 -0.091981296394450
100 0.0
101 0.0
102 0.019273718285955
103 0.006622128633425
104 0.006817098813040
105 0.007552512851475
106 0.0
107 0.0
108 0.0
109 0.016126365791209
110 0.015933980316808
111 0.019182399381064
112 0.0
113 0.0
114 0.0
115 0.018332864734359
116 0.019573327004398
117 0.039118666958757
118 0.0
119 0.0
120 0.0
121 0.025223457680379
122 0.024772078268965
123 0.007764429224736
124 0.0
125 0.0
126 0.0
127 0.0
128 0.0
129 -0.000684616937047
130 0.0
131 0.0
132 -0.000560946658970
133 0.0
134 0.0
135 -0.000510003465658
136 0.0
137 0.0
138 0.0
139 -0.059199739539730
140 0.0
141 0.0
142 -0.024548221772249
143 0.0
144 0.0
145 -0.023593577922041
146 0.0
147 0.0
148 0.0
149 -0.057534202603350
150 0.0
151 0.0
152 -0.022796494928270
153 0.0
154 0.0
155 -0.025842744554019
156 0.0
 Sym=      8.1
 Ene=      -0.0083
 Spin= Alpha
 Occup=   -0.000000
1 0.000009568089230
2 0.000076460418031
3 0.000379332288673
4 0.001644358716737
5 0.005148597156879
6 0.014650137425568
7 0.028683278802299
8 0.039107855375675
9 0.85015730408712
10 -10.6831538120414
11 12.5201267227050
12 -1.72936366586087
13 0.0
14 0.0
15 0.000762228270946
16 0.0
17 0.0
18 0.009289372077680
19 0.0
20 0.0
21 -0.064275839224174
22 0.0
23 0.0
24 -0.48150494792385
25 0.0
26 0.0
27 0.30948403998318
28 0.0
29 0.0
30 0.19891599016600
31 0.34992788284902
32 0.34870127627059
33 0.35159646816387
34 0.0
35 0.0
36 0.0
37 0.68346667862791
38 0.68272208705421
39 0.19090553706374
40 0.0
41 0.0
42 0.0
43 -2.29748546057301
44 -2.27067028131879
45 -2.29704393725143
46 0.0
47 0.0
48 0.0
49 0.0
50 0.0
51 -0.10953405721220
52 0.0
53 0.0
54 -0.023573193988396
55 0.0
56 0.0
57 -0.035528385408268
58 0.0
59 0.0
60 0.0
61 -0.014257375798128
62 0.0
63 0.0
64 0.058639176075720
65 0.0
66 0.0
67 0.095753304347387
68 0.0
69 -0.000000723738314
70 -0.000005398479008
71 -0.000029914368785
72 -0.000115857906018
73 -0.000440542977676
74 -0.001135953458523
75 -0.003241454637680
76 -0.003327008193356
77 0.003025043236520
78 0.023338086489129
79 0.043996569408410
80 0.60222083877746
81 -0.40730420528365
82 0.0
83 0.0
84 0.000142936507195
85 0.0
86 0.0
87 0.001412380008325
88 0.0
89 0.0
90 -0.000149762433266
91 0.0
92 0.0
93 0.062434238713879
94 0.0
95 0.0
96 -0.048491479210064
97 0.0
98 0.0
99 -0.70767651506763
100 0.0
101 0.0
102 0.055297077963188
103 0.003556722876222
104 0.003461754558070
105 0.003324631275405
106 0.0
107 0.0
108 0.0
109 0.014003342672688
110 0.013668418584797
111 0.014715997428688
112 0.0
113 0.0
114 0.0
115 0.046708721406516
116 0.049684574900381
117 0.045536613063857
118 0.0
119 0.0
120 0.0
121 0.25667287690140
122 0.24697120165979
123 0.38519508420184
124 0.0
125 0.0
126 0.0
127 0.0
128 0.0
129 -0.004403160383450
130 0.0
131 0.0
132 -0.001780193783181
133 0.0
134 0.0
135 -0.001924202394687
136 0.0
137 0.0
138 0.0
139 0.061776409563165
140 0.0
141 0.0
142 0.026592653704574
143 0.0
144 0.0
145 0.027666011421843
146 0.0
147 0.0
148 0.0
149 0.13367527210200
150 0.0
151 0.0
152 0.063134808819682
153 0.0
154 0.0
155 0.062890934928852
156 0.0
 Sym=      9.1
 Ene=       0.0300
 Spin= Alpha
 Occup=   -0.000000
1 0.0
2 0.0
3 0.0
4 0.0