[Molden Format]
[Atoms] Angs
LI    1    3         0.0000000000        0.0000000000       -0.7918000000
F     2    9         0.0000000000        0.0000000000        0.7918000000
[GTO]
   1 0
 s   11  1.00
  0.5988000000D+04  0.1329999901D-03
  0.8989000000D+03  0.1024999924D-02
  0.2059000000D+03  0.5271999607D-02
  0.5924000000D+02  0.2092899844D-01
  0.1987000000D+02  0.6633999506D-01
  0.7406000000D+01  0.1657749877D+00
  0.2930000000D+01  0.3150379765D+00
  0.1189000000D+01  0.3935229707D+00
  0.4798000000D+00  0.1908699858D+00
  0.7509000000D-01  0.5413999597D-02
  0.2832000000D-01 -0.1327999901D-02
 s   11  1.00
  0.5988000000D+04 -0.2100000605D-04
  0.8989000000D+03 -0.1610000464D-03
  0.2059000000D+03 -0.8200002362D-03
  0.5924000000D+02 -0.3326000958D-02
  0.1987000000D+02 -0.1051900303D-01
  0.7406000000D+01 -0.2809700809D-01
  0.2930000000D+01 -0.5593601611D-01
  0.1189000000D+01 -0.9923702859D-01
  0.4798000000D+00 -0.1121890323D+00
  0.7509000000D-01  0.5678891636D+00
  0.2832000000D-01  0.5303821528D+00
 s   11  1.00
  0.5988000000D+04  0.0000000000D+00
  0.8989000000D+03  0.0000000000D+00
  0.2059000000D+03  0.0000000000D+00
  0.5924000000D+02  0.0000000000D+00
  0.1987000000D+02  0.0000000000D+00
  0.7406000000D+01  0.0000000000D+00
  0.2930000000D+01  0.0000000000D+00
  0.1189000000D+01  0.0000000000D+00
  0.4798000000D+00  0.0000000000D+00
  0.7509000000D-01  0.1000000000D+01
  0.2832000000D-01  0.0000000000D+00
 s   11  1.00
  0.5988000000D+04  0.0000000000D+00
  0.8989000000D+03  0.0000000000D+00
  0.2059000000D+03  0.0000000000D+00
  0.5924000000D+02  0.0000000000D+00
  0.1987000000D+02  0.0000000000D+00
  0.7406000000D+01  0.0000000000D+00
  0.2930000000D+01  0.0000000000D+00
  0.1189000000D+01  0.0000000000D+00
  0.4798000000D+00  0.0000000000D+00
  0.7509000000D-01  0.0000000000D+00
  0.2832000000D-01  0.1000000000D+01
 p    5  1.00
  0.3266000000D+01  0.8630004765D-02
  0.6511000000D+00  0.4753802625D-01
  0.1696000000D+00  0.2097721158D+00
  0.5578000000D-01  0.5285222918D+00
  0.2050000000D-01  0.3827442113D+00
 p    5  1.00
  0.3266000000D+01  0.0000000000D+00
  0.6511000000D+00  0.0000000000D+00
  0.1696000000D+00  0.0000000000D+00
  0.5578000000D-01  0.1000000000D+01
  0.2050000000D-01  0.0000000000D+00
 p    5  1.00
  0.3266000000D+01  0.0000000000D+00
  0.6511000000D+00  0.0000000000D+00
  0.1696000000D+00  0.0000000000D+00
  0.5578000000D-01  0.0000000000D+00
  0.2050000000D-01  0.1000000000D+01
 d    1  1.00
  0.1900000000D+00  0.1000000000D+01
 d    1  1.00
  0.7250000000D-01  0.1000000000D+01
 f    1  1.00
  0.1270000000D+00  0.1000000000D+01
  
   2 0
 s   10  1.00
  0.1950000000D+05  0.5070001688D-03
  0.2923000000D+04  0.3923001306D-02
  0.6645000000D+03  0.2020000673D-01
  0.1875000000D+03  0.7901002631D-01
  0.6062000000D+02  0.2304390767D+00
  0.2142000000D+02  0.4328721441D+00
  0.7950000000D+01  0.3499641165D+00
  0.2257000000D+01  0.4323301440D-01
  0.8815000000D+00 -0.7892002628D-02
  0.3041000000D+00  0.2384000794D-02
 s   10  1.00
  0.1950000000D+05 -0.1169999533D-03
  0.2923000000D+04 -0.9119996360D-03
  0.6645000000D+03 -0.4716998117D-02
  0.1875000000D+03 -0.1908599238D-01
  0.6062000000D+02 -0.5965497619D-01
  0.2142000000D+02 -0.1400099441D+00
  0.7950000000D+01 -0.1767819294D+00
  0.2257000000D+01  0.1716249315D+00
  0.8815000000D+00  0.6050427585D+00
  0.3041000000D+00  0.3695118525D+00
 s   10  1.00
  0.1950000000D+05  0.0000000000D+00
  0.2923000000D+04  0.0000000000D+00
  0.6645000000D+03  0.0000000000D+00
  0.1875000000D+03  0.0000000000D+00
  0.6062000000D+02  0.0000000000D+00
  0.2142000000D+02  0.0000000000D+00
  0.7950000000D+01  0.0000000000D+00
  0.2257000000D+01  0.1000000000D+01
  0.8815000000D+00  0.0000000000D+00
  0.3041000000D+00  0.0000000000D+00
 s   10  1.00
  0.1950000000D+05  0.0000000000D+00
  0.2923000000D+04  0.0000000000D+00
  0.6645000000D+03  0.0000000000D+00
  0.1875000000D+03  0.0000000000D+00
  0.6062000000D+02  0.0000000000D+00
  0.2142000000D+02  0.0000000000D+00
  0.7950000000D+01  0.0000000000D+00
  0.2257000000D+01  0.0000000000D+00
  0.8815000000D+00  0.0000000000D+00
  0.3041000000D+00  0.1000000000D+01
 s    1  1.00
  0.9158000000D-01  0.1000000000D+01
 p    5  1.00
  0.4388000000D+02  0.1666500251D-01
  0.9926000000D+01  0.1044720157D+00
  0.2930000000D+01  0.3172600478D+00
  0.9132000000D+00  0.4873430734D+00
  0.2672000000D+00  0.3346040504D+00
 p    5  1.00
  0.4388000000D+02  0.0000000000D+00
  0.9926000000D+01  0.0000000000D+00
  0.2930000000D+01  0.0000000000D+00
  0.9132000000D+00  0.1000000000D+01
  0.2672000000D+00  0.0000000000D+00
 p    5  1.00
  0.4388000000D+02  0.0000000000D+00
  0.9926000000D+01  0.0000000000D+00
  0.2930000000D+01  0.0000000000D+00
  0.9132000000D+00  0.0000000000D+00
  0.2672000000D+00  0.1000000000D+01
 p    1  1.00
  0.7361000000D-01  0.1000000000D+01
 d    1  1.00
  0.3107000000D+01  0.1000000000D+01
 d    1  1.00
  0.8550000000D+00  0.1000000000D+01
 d    1  1.00
  0.2920000000D+00  0.1000000000D+01
 f    1  1.00
  0.1917000000D+01  0.1000000000D+01
 f    1  1.00
  0.7240000000D+00  0.1000000000D+01


[MO]
 Sym=      1.1
 Ene=     -26.4122
 Spin= Alpha
 Occup=    2.000000
1 0.000587967352121
2 0.002813310967680
3 -0.001420217672029
4 -0.001215211477091
5 0.0
6 0.0
7 -0.003086655590153
8 0.0
9 0.0
10 0.001960921490213
11 0.0
12 0.0
13 0.001123422146426
14 0.000225664591573
15 0.000225664591573
16 -0.000451329183146
17 0.0
18 0.0
19 0.0
20 0.000058401339400
21 0.000058401339400
22 -0.000116802678801
23 0.0
24 0.0
25 0.0
26 0.0
27 0.0
28 -0.000263823656495
29 0.0
30 0.0
31 0.000176978288998
32 0.0
33 0.0
34 0.000176978288998
35 0.0
36 0.99902355607368
37 -0.002554232860320
38 0.000967353963804
39 0.003930714671344
40 -0.001853210998109
41 0.0
42 0.0
43 -0.000641193270031
44 0.0
45 0.0
46 0.000397766684066
47 0.0
48 0.0
49 -0.000465358523155
50 0.0
51 0.0
52 0.000633806522278
53 -0.000000314413924
54 -0.000000314413924
55 0.000000628827848
56 0.0
57 0.0
58 0.0
59 -0.000022276070041
60 -0.000022276070041
61 0.000044552140081
62 0.0
63 0.0
64 0.0
65 -0.000051058190499
66 -0.000051058190499
67 0.000102116380998
68 0.0
69 0.0
70 0.0
71 0.0
72 0.0
73 0.000033261736744
74 0.0
75 0.0
76 -0.000022312651322
77 0.0
78 0.0
79 -0.000022312651322
80 0.0
81 0.0
82 0.0
83 -0.000094412492832
84 0.0
85 0.0
86 0.000063333825569
87 0.0
88 0.0
89 0.000063333825569
90 0.0
 Sym=      2.1
 Ene=      -2.4715
 Spin= Alpha
 Occup=    2.000000
1 0.99744717502923
2 0.000908002587730
3 0.004045823035468
4 0.000161257654503
5 0.0
6 0.0
7 0.001441715038435
8 0.0
9 0.0
10 0.002568581303551
11 0.0
12 0.0
13 -0.001183613165866
14 -0.000176480331476
15 -0.000176480331476
16 0.000352960662953
17 0.0
18 0.0
19 0.0
20 -0.000671295220620
21 -0.000671295220620
22 0.001342590441241
23 0.0
24 0.0
25 0.0
26 0.0
27 0.0
28 0.000527600153549
29 0.0
30 0.0
31 -0.000353924942482
32 0.0
33 0.0
34 -0.000353924942482
35 0.0
36 -0.000611261206556
37 0.029662681262867
38 -0.000305279955402
39 -0.000641277796249
40 -0.006447052991249
41 0.0
42 0.0
43 -0.008317899357436
44 0.0
45 0.0
46 -0.000673463133665
47 0.0
48 0.0
49 0.000842944456909
50 0.0
51 0.0
52 0.001406803610187
53 -0.000169566772927
54 -0.000169566772927
55 0.000339133545854
56 0.0
57 0.0
58 0.0
59 -0.000857489708794
60 -0.000857489708794
61 0.001714979417589
62 0.0
63 0.0
64 0.0
65 -0.000406720798374
66 -0.000406720798374
67 0.000813441596747
68 0.0
69 0.0
70 0.0
71 0.0
72 0.0
73 -0.000163668219614
74 0.0
75 0.0
76 0.000109791979444
77 0.0
78 0.0
79 0.000109791979444
80 0.0
81 0.0
82 0.0
83 -0.000790399154829
84 0.0
85 0.0
86 0.000530215871867
87 0.0
88 0.0
89 0.000530215871867
90 0.0
 Sym=      3.1
 Ene=      -1.6270
 Spin= Alpha
 Occup=    2.000000
1 -0.052306251986651
2 0.10782226852707
3 -0.022815818919524
4 -0.055989734254750
5 0.0
6 0.0
7 0.072556787759086
8 0.0
9 0.0
10 -0.018928825102247
11 0.0
12 0.0
13 -0.031228530185024
14 -0.003777160433027
15 -0.003777160433027
16 0.007554320866054
17 0.0
18 0.0
19 0.0
20 -0.002625189523038
21 -0.002625189523038
22 0.005250379046076
23 0.0
24 0.0
25 0.0
26 0.0
27 0.0
28 0.003310152614741
29 0.0
30 0.0
31 -0.002220517878738
32 0.0
33 0.0
34 -0.002220517878738
35 0.0
36 -0.001025053542798
37 0.98752649413956
38 -0.001818998335653
39 0.002673286553745
40 -0.034006723151229
41 0.0
42 0.0
43 -0.027831941283593
44 0.0
45 0.0
46 -0.004642739107608
47 0.0
48 0.0
49 -0.006218521938359
50 0.0
51 0.0
52 0.010725784537040
53 -0.000055815010464
54 -0.000055815010464
55 0.000111630020928
56 0.0
57 0.0
58 0.0
59 -0.001977055632635
60 -0.001977055632635
61 0.003954111265269
62 0.0
63 0.0
64 0.0
65 -0.002906449410138
66 -0.002906449410138
67 0.005812898820276
68 0.0
69 0.0
70 0.0
71 0.0
72 0.0
73 0.000471707059097
74 0.0
75 0.0
76 -0.000316430714882
77 0.0
78 0.0
79 -0.000316430714882
80 0.0
81 0.0
82 0.0
83 -0.003394576329489
84 0.0
85 0.0
86 0.002277151028265
87 0.0
88 0.0
89 0.002277151028265
90 0.0
 Sym=      4.1
 Ene=      -0.6733
 Spin= Alpha
 Occup=    1.729045
1 0.024071608839394
2 -0.35895941770760
3 0.089721662794321
4 0.19876305049164
5 0.0
6 0.0
7 -0.34899300145325
8 0.0
9 0.0
10 0.12950636249087
11 0.0
12 0.0
13 0.14155124356747
14 0.016144237772921
15 0.016144237772921
16 -0.032288475545841
17 0.0
18 0.0
19 0.0
20 0.009793897060471
21 0.009793897060471
22 -0.019587794120941
23 0.0
24 0.0
25 0.0
26 0.0
27 0.0
28 -0.017733627759018
29 0.0
30 0.0
31 0.011896079147053
32 0.0
33 0.0
34 0.011896079147053
35 0.0
36 0.001007987230083
37 0.056046128423145
38 0.002216210149410
39 0.030753258266745
40 0.10725197355525
41 0.0
42 0.0
43 0.98136594697256
44 0.0
45 0.0
46 -0.001666795002774
47 0.0
48 0.0
49 -0.013564161334754
50 0.0
51 0.0
52 0.012438830093408
53 0.000543861975058
54 0.000543861975058
55 -0.001087723950115
56 0.0
57 0.0
58 0.0
59 0.003867039251543
60 0.003867039251543
61 -0.007734078503086
62 0.0
63 0.0
64 0.0
65 0.009144456733638
66 0.009144456733638
67 -0.018288913467277
68 0.0
69 0.0
70 0.0
71 0.0
72 0.0
73 -0.000902757080939
74 0.0
75 0.0
76 0.000605587860045
77 0.0
78 0.0
79 0.000605587860045
80 0.0
81 0.0
82 0.0
83 0.007593625093904
84 0.0
85 0.0
86 -0.005093958571685
87 0.0
88 0.0
89 -0.005093958571685
90 0.0
 Sym=      7.1
 Ene=      -0.0400
 Spin= Alpha
 Occup=    0.749740
1 0.006767042318295
2 0.86546354388186
3 -0.036854825546377
4 0.18416050321855
5 0.0
6 0.0
7 -0.45813952274290
8 0.0
9 0.0
10 0.098266358352351
11 0.0
12 0.0
13 0.14180137391484
14 0.004238007207324
15 0.004238007207324
16 -0.008476014414648
17 0.0
18 0.0
19 0.0
20 0.005809569421104
21 0.005809569421104
22 -0.011619138842207
23 0.0
24 0.0
25 0.0
26 0.0
27 0.0
28 -0.002700212806711
29 0.0
30 0.0
31 0.001811357816856
32 0.0
33 0.0
34 0.001811357816856
35 0.0
36 -0.001951983317339
37 -0.078513835935709
38 -0.001323499625769
39 -0.049034641799707
40 -0.052905750776687
41 0.0
42 0.0
43 0.035926225618824
44 0.0
45 0.0
46 0.000374929104060
47 0.0
48 0.0
49 0.010790171806819
50 0.0
51 0.0
52 0.005092610062221
53 0.000149860068624
54 0.000149860068624
55 -0.000299720137247
56 0.0
57 0.0
58 0.0
59 0.001240801173014
60 0.001240801173014
61 -0.002481602346029
62 0.0
63 0.0
64 0.0
65 0.002054963232350
66 0.002054963232350
67 -0.004109926464701
68 0.0
69 0.0
70 0.0
71 0.0
72 0.0
73 -0.000095204518097
74 0.0
75 0.0
76 0.000063865132269
77 0.0
78 0.0
79 0.000063865132269
80 0.0
81 0.0
82 0.0
83 0.001825868178090
84 0.0
85 0.0
86 -0.001224829609249
87 0.0
88 0.0
89 -0.001224829609249
90 0.0
 Sym=     10.1
 Ene=       1.1164
 Spin= Alpha
 Occup=    0.014329
1 -0.022322944736602
2 -0.97264249441773
3 0.15768586052795
4 0.61711873915769
5 0.0
6 0.0
7 -1.29677266487920
8 0.0
9 0.0
10 0.46260764198351
11 0.0
12 0.0
13 0.51589528719419
14 0.027333274761403
15 0.027333274761403
16 -0.054666549522807
17 0.0
18 0.0
19 0.0
20 0.043865879019084
21 0.043865879019084
22 -0.087731758038169
23 0.0
24 0.0
25 0.0
26 0.0
27 0.0
28 -0.036659918265437
29 0.0
30 0.0
31 0.024592220787331
32 0.0
33 0.0
34 0.024592220787331
35 0.0
36 0.012140937104093
37 0.038740191055855
38 -0.021588134585392
39 0.10131758446676
40 0.41817294746875
41 0.0
42 0.0
43 -1.47651457383865
44 0.0
45 0.0
46 0.46933326771749
47 0.0
48 0.0
49 1.21046192508698
50 0.0
51 0.0
52 0.13285755030117
53 0.005807841819699
54 0.005807841819699
55 -0.011615683639399
56 0.0
57 0.0
58 0.0
59 0.011593117710381
60 0.011593117710381
61 -0.023186235420763
62 0.0
63 0.0
64 0.0
65 0.034915754809903
66 0.034915754809903
67 -0.069831509619807
68 0.0
69 0.0
70 0.0
71 0.0
72 0.0
73 -0.002776800184864
74 0.0
75 0.0
76 0.001862734191987
77 0.0
78 0.0
79 0.001862734191987
80 0.0
81 0.0
82 0.0
83 0.012427924724080
84 0.0
85 0.0
86 -0.008336905350688
87 0.0
88 0.0
89 -0.008336905350688
90 0.0
 Sym=     11.1
 Ene=       2.9557
 Spin= Alpha
 Occup=    0.003239
1 0.0
2 0.0
3 0.0
4 0.0
5 0.0
6 0.17703212095500
7 0.0
8 0.0
9 -0.062040506352882
10 0.0
11 0.0
12 -0.071162661867174
13 0.0
14 0.0
15 0.0
16 0.0
17 0.0
18 0.0
19 0.037828353034367
20 0.0
21 0.0
22 0.0
23 0.0
24 0.0
25 0.017490933253695
26 0.0
27 -0.011837062297489
28 0.0
29 0.0
30 -0.005293695190217
31 0.0
32 0.0
33 0.021174780760868
34 0.0
35 0.0
36 0.0
37 0.0
38 0.0
39 0.0
40 0.0
41 0.0
42 0.29526831118723
43 0.0
44 0.0
45 -0.19870708202259
46 0.0
47 0.0
48 -0.20849327354609
49 0.0
50 0.0
51 -0.034571468413976
52 0.0
53 0.0
54 0.0
55 0.0
56 0.0
57 0.0
58 -0.42017541146133
59 0.0
60 0.0
61 0.0
62 0.0
63 0.0
64 -0.66875995626399
65 0.0
66 0.0
67 0.0
68 0.0
69 0.0
70 -0.052080333577511
71 0.0
72 -0.000161957150178
73 0.0
74 0.0
75 -0.000072429439448
76 0.0
77 0.0
78 0.000289717757792
79 0.0
80 0.0
81 0.0
82 -0.010368847424295
83 0.0
84 0.0
85 -0.004637089537809
86 0.0
87 0.0
88 0.018548358151237
89 0.0
90 0.0
 Sym=     14.1
 Ene=       2.9975
 Spin= Alpha
 Occup=    0.003188
1 0.0
2 0.0
3 0.0
4 0.0
5 0.0
6 0.0
7 0.0
8 0.0
9 0.0
10 0.0
11 0.0
12 0.0
13 0.0
14 -0.011417713725533
15 0.011417713725533
16 0.0
17 0.0
18 0.0
19 0.0
20 -0.002910465188169
21 0.002910465188169
22 0.0
23 0.0
24 0.0
25 0.0
26 0.0
27 0.0
28 0.0
29 0.0
30 0.0
31 -0.012812688585200
32 0.0
33 0.0
34 0.012812688585200
35 0.0
36 0.0
37 0.0
38 0.0
39 0.0
40 0.0
41 0.0
42 0.0
43 0.0
44 0.0
45 0.0
46 0.0
47 0.0
48 0.0
49 0.0
50 0.0
51 0.0
52 0.0
53 -0.37138779067303
54 0.37138779067303
55 0.0
56 0.0
57 0.0
58 0.0
59 -0.57797480185312
60 0.57797480185312
61 0.0
62 0.0
63 0.0
64 0.0
65 -0.062645443532982
66 0.062645443532982
67 0.0
68 0.0
69 0.0
70 0.0
71 0.0
72 0.0
73 0.0
74 0.0
75 0.0
76 -0.000852648107464
77 0.0
78 0.0
79 0.000852648107464
80 0.0
81 0.0
82 0.0
83 0.0
84 0.0
85 0.0
86 0.013064324930927
87 0.0
88 0.0
89 -0.013064324930927
90 0.0
 Sym=     17.1
 Ene=       3.0169
 Spin= Alpha
 Occup=    0.001384
1 0.0
2 0.0
3 0.0
4 0.0
5 0.0
6 1.44733405309760
7 0.0
8 0.0
9 -0.60442871327235
10 0.0
11 0.0
12 -0.61450044059279
13 0.0
14 0.0
15 0.0
16 0.0
17 0.0
18 0.0
19 0.20541560090301
20 0.0
21 0.0
22 0.0
23 0.0
24 0.0
25 0.084428416234365
26 0.0
27 -0.074211882123958
28 0.0
29 0.0
30 -0.033188562633474
31 0.0
32 0.0
33 0.13275425053390
34 0.0
35 0.0
36 0.0
37 0.0
38 0.0
39 0.0
40 0.0
41 0.0
42 2.29271275392252
43 0.0
44 0.0
45 -1.99294383860362
46 0.0
47 0.0
48 -1.07409661957375
49 0.0
50 0.0
51 0.35051279752485
52 0.0
53 0.0
54 0.0
55 0.0
56 0.0
57 0.0
58 0.091521596809343
59 0.0
60 0.0
61 0.0
62 0.0
63 0.0
64 0.081532084760488
65 0.0
66 0.0
67 0.0
68 0.0
69 0.0
70 0.035996376903274
71 0.0
72 -0.002383864977246
73 0.0
74 0.0
75 -0.001066096827661
76 0.0
77 0.0
78 0.004264387310642
79 0.0
80 0.0
81 0.0
82 0.010172817765176
83 0.0
84 0.0
85 0.004549422409130
86 0.0
87 0.0
88 -0.018197689636520
89 0.0
90 0.0
 Sym=      5.1
 Ene=      -0.6533
 Spin= Alpha
 Occup=    1.725359
1 0.0
2 0.0
3 0.0
4 0.0
5 0.0
6 0.10128614925482
7 0.0
8 0.0
9 -0.059303785642053
10 0.0
11 0.0
12 -0.036915145016986
13 0.0
14 0.0
15 0.0
16 0.0
17 0.0
18 0.0
19 0.002478387529388
20 0.0
21 0.0
22 0.0
23 0.0
24 0.0
25 -0.002909944228083
26 0.0
27 0.002859170332156
28 0.0
29 0.0
30 0.001278659844390
31 0.0
32 0.0
33 -0.005114639377561
34 0.0
35 0.0
36 0.0
37 0.0
38 0.0
39 0.0
40 0.0
41 0.0
42 0.98401581126441
43 0.0
44 0.0
45 -0.004881962023267
46 0.0
47 0.0
48 0.006155234813670
49 0.0
50 0.0
51 0.037952839262896
52 0.0
53 0.0
54 0.0
55 0.0
56 0.0
57 0.0
58 -0.000961695969593
59 0.0
60 0.0
61 0.0
62 0.0
63 0.0
64 -0.005672257819940
65 0.0
66 0.0
67 0.0
68 0.0
69 0.0
70 -0.016559506805072
71 0.0
72 0.000321541183924
73 0.0
74 0.0
75 0.000143797588964
76 0.0
77 0.0
78 -0.000575190355857
79 0.0
80 0.0
81 0.0
82 -0.003301240964114
83 0.0
84 0.0
85 -0.001476359841173
86 0.0
87 0.0
88 0.005905439364693
89 0.0
90 0.0
 Sym=      9.1
 Ene=       0.8539
 Spin= Alpha
 Occup=    0.017603
1 0.0
2 0.0
3 0.0
4 0.0
5 0.0
6 -0.70764200393421
7 0.0
8 0.0
9 0.33394445611352
10 0.0
11 0.0
12 0.28676138778524
13 0.0
14 0.0
15 0.0
16 0.0
17 0.0
18 0.0
19 -0.059244509141625
20 0.0
21 0.0
22 0.0
23 0.0
24 0.0
25 -0.020438716897423
26 0.0
27 0.010636320227430
28 0.0
29 0.0
30 0.004756707011798
31 0.0
32 0.0
33 -0.019026828047191
34 0.0
35 0.0
36 0.0
37 0.0
38 0.0
39 0.0
40 0.0
41 0.0
42 1.32313269945966
43 0.0
44 0.0
45 -0.38144002794253
46 0.0
47 0.0
48 -1.07954960596548
49 0.0
50 0.0
51 -0.22372427913107
52 0.0
53 0.0
54 0.0
55 0.0
56 0.0
57 0.0
58 0.010953035199143
59 0.0
60 0.0
61 0.0
62 0.0
63 0.0
64 0.026949308166741
65 0.0
66 0.0
67 0.0
68 0.0
69 0.0
70 0.044871305161949
71 0.0
72 -0.000717158312911
73 0.0
74 0.0
75 -0.000320722947660
76 0.0
77 0.0
78 0.001282891790639
79 0.0
80 0.0
81 0.0
82 0.004524143817277
83 0.0
84 0.0
85 0.002023258623083
86 0.0
87 0.0
88 -0.008093034492333
89 0.0
90 0.0
 Sym=     13.1
 Ene=       2.9777
 Spin= Alpha
 Occup=    0.003225
1 0.069774597401088
2 0.049361368522098
3 -0.13742207643085
4 -0.033487944768727
5 0.0
6 0.0
7 -0.089508173935856
8 0.0
9 0.0
10 0.028035542876995
11 0.0
12 0.0
13 0.042700245339919
14 -0.002065982051883
15 -0.002065982051883
16 0.004131964103765
17 0.0
18 0.0
19 0.0
20 0.000320068581338
21 0.000320068581338
22 -0.000640137162676
23 0.0
24 0.0
25 0.0
26 0.0
27 0.0
28 0.003757296699805
29 0.0
30 0.0
31 -0.002520471249720
32 0.0
33 0.0
34 -0.002520471249720
35 0.0
36 -0.000945367777444
37 0.012706971605799
38 0.007341845211449
39 -0.039821247187571
40 0.11663899110599
41 0.0
42 0.0
43 0.18430688184052
44 0.0
45 0.0
46 -0.12522624200869
47 0.0
48 0.0
49 -0.12062392547751
50 0.0
51 0.0
52 -0.053016103191952
53 0.21188864761023
54 0.21188864761023
55 -0.42377729522046
56 0.0
57 0.0
58 0.0
59 0.33766194519952
60 0.33766194519952
61 -0.67532389039905
62 0.0
63 0.0
64 0.0
65 0.030926391595644
66 0.030926391595644
67 -0.061852783191287
68 0.0
69 0.0
70 0.0
71 0.0
72 0.0
73 0.000376894171918
74 0.0
75 0.0
76 -0.000252828296620
77 0.0
78 0.0
79 -0.000252828296620
80 0.0
81 0.0
82 0.0
83 0.019358499556397
84 0.0
85 0.0
86 -0.012986076285151
87 0.0
88 0.0
89 -0.012986076285151
90 0.0
 Sym=     18.1
 Ene=       1.4698
 Spin= Alpha
 Occup=    0.001269
1 -0.029718374076790
2 0.30177658397991
3 0.17430059153586
4 -0.30145826173983
5 0.0
6 0.0
7 0.94616960443520
8 0.0
9 0.0
10 -0.26507803972729
11 0.0
12 0.0
13 -0.38195643591736
14 0.001917684696390
15 0.001917684696390
16 -0.003835369392780
17 0.0
18 0.0
19 0.0
20 -0.039570595967587
21 -0.039570595967587
22 0.079141191935174
23 0.0
24 0.0
25 0.0
26 0.0
27 0.0
28 -0.008250364312568
29 0.0
30 0.0
31 0.005534512632612
32 0.0
33 0.0
34 0.005534512632612
35 0.0
36 -0.15496057710005
37 -1.54855269237125
38 -0.28622737637067
39 1.91369835650709
40 -0.40651584466842
41 0.0
42 0.0
43 -0.74717268539277
44 0.0
45 0.0
46 0.72112049863952
47 0.0
48 0.0
49 0.24103144421203
50 0.0
51 0.0
52 -0.022087745531347
53 0.007345340685796
54 0.007345340685796
55 -0.014690681371592
56 0.0
57 0.0
58 0.0
59 0.010377240735728
60 0.010377240735728
61 -0.020754481471456
62 0.0
63 0.0
64 0.0
65 -0.007298924909640
66 -0.007298924909640
67 0.014597849819280
68 0.0
69 0.0
70 0.0
71 0.0
72 0.0
73 -0.001134007627920
74 0.0
75 0.0
76 0.000760715442910
77 0.0
78 0.0
79 0.000760715442910
80 0.0
81 0.0
82 0.0
83 0.003154225747425
84 0.0
85 0.0
86 -0.002115918956287
87 0.0
88 0.0
89 -0.002115918956287
90 0.0
 Sym=      6.1
 Ene=      -0.6533
 Spin= Alpha
 Occup=    1.725359
1 0.0
2 0.0
3 0.0
4 0.0
5 0.10128615999257
6 0.0
7 0.0
8 -0.059303791541823
9 0.0
10 0.0
11 -0.036915164731513
12 0.0
13 0.0
14 0.0
15 0.0
16 0.0
17 0.0
18 0.002478401452901
19 0.0
20 0.0
21 0.0
22 0.0
23 0.0
24 -0.002909968225045
25 0.0
26 0.002859166081181
27 0.0
28 0.0
29 0.001278657943296
30 0.0
31 0.0
32 -0.005114631773186
33 0.0
34 0.0
35 0.0
36 0.0
37 0.0
38 0.0
39 0.0
40 0.0
41 0.98401580480063
42 0.0
43 0.0
44 -0.004881949430421
45 0.0
46 0.0
47 0.006155205016173
48 0.0
49 0.0
50 0.037952886486123
51 0.0
52 0.0
53 0.0
54 0.0
55 0.0
56 0.0
57 -0.000961695871278
58 0.0
59 0.0
60 0.0
61 0.0
62 0.0
63 -0.005672258358426
64 0.0
65 0.0
66 0.0
67 0.0
68 0.0
69 -0.016559502182437
70 0.0
71 0.000321539854242
72 0.0
73 0.0
74 0.000143796994312
75 0.0
76 0.0
77 -0.000575187977249
78 0.0
79 0.0
80 0.0
81 -0.003301243136584
82 0.0
83 0.0
84 -0.001476360812731
85 0.0
86 0.0
87 0.005905443250926
88 0.0
89 0.0
90 0.0
 Sym=      8.1
 Ene=       0.8539
 Spin= Alpha
 Occup=    0.017603
1 0.0
2 0.0
3 0.0
4 0.0
5 0.70764261663451
6 0.0
7 0.0
8 -0.33394458189688
9 0.0
10 0.0
11 -0.28676166947201
12 0.0
13 0.0
14 0.0
15 0.0
16 0.0
17 0.0
18 0.059244500786394
19 0.0
20 0.0
21 0.0
22 0.0
23 0.0
24 0.020438945543807
25 0.0
26 -0.010636337344972
27 0.0
28 0.0
29 -0.004756714666995
30 0.0
31 0.0
32 0.019026858667982
33 0.0
34 0.0
35 0.0
36 0.0
37 0.0
38 0.0
39 0.0
40 0.0
41 -1.32313262612066
42 0.0
43 0.0
44 0.38144007050842
45 0.0
46 0.0
47 1.07954930385781
48 0.0
49 0.0
50 0.22372419576356
51 0.0
52 0.0
53 0.0
54 0.0
55 0.0
56 0.0
57 -0.010953044320182
58 0.0
59 0.0
60 0.0
61 0.0
62 0.0
63 -0.026949294399402
64 0.0
65 0.0
66 0.0
67 0.0
68 0.0
69 -0.044871259274496
70 0.0
71 0.000717148006463
72 0.0
73 0.0
74 0.000320718338476
75 0.0
76 0.0
77 -0.001282873353903
78 0.0
79 0.0
80 0.0
81 -0.004524143303625
82 0.0
83 0.0
84 -0.002023258393371
85 0.0
86 0.0
87 0.008093033573485
88 0.0
89 0.0
90 0.0
 Sym=     12.1
 Ene=       2.9557
 Spin= Alpha
 Occup=    0.003239
1 0.0
2 0.0
3 0.0
4 0.0
5 -0.17703283540756
6 0.0
7 0.0
8 0.062040759629401
9 0.0
10 0.0
11 0.071163022209361
12 0.0
13 0.0
14 0.0
15 0.0
16 0.0
17 0.0
18 -0.037828479307248
19 0.0
20 0.0
21 0.0
22 0.0
23 0.0
24 -0.017491073500163
25 0.0
26 0.011837123233983
27 0.0
28 0.0
29 0.005293722441846
30 0.0
31 0.0
32 -0.021174889767383
33 0.0
34 0.0
35 0.0
36 0.0
37 0.0
38 0.0
39 0.0
40 0.0
41 -0.29526830010358
42 0.0
43 0.0
44 0.19870687837055
45 0.0
46 0.0
47 0.20849380920453
48 0.0
49 0.0
50 0.034571328246453
51 0.0
52 0.0
53 0.0
54 0.0
55 0.0
56 0.0
57 0.42017543420323
58 0.0
59 0.0
60 0.0
61 0.0
62 0.0
63 0.66875993088938
64 0.0
65 0.0
66 0.0
67 0.0
68 0.0
69 0.052080236326324
70 0.0
71 0.000161941098543
72 0.0
73 0.0
74 0.000072422260939
75 0.0
76 0.0
77 -0.000289689043755
78 0.0
79 0.0
80 0.0
81 0.010368857820587
82 0.0
83 0.0
84 0.004637094187173
85 0.0
86 0.0
87 -0.018548376748690
88 0.0
89 0.0
90 0.0
 Sym=     19.1
 Ene=       3.3836
 Spin= Alpha
 Occup=    0.000848
1 -0.058792366696616
2 0.15916207259071
3 0.98956529686136
4 -0.18953121706402
5 0.0
6 0.0
7 2.27320595050540
8 0.0
9 0.0
10 -0.67786411121629
11 0.0
12 0.0
13 -0.91680332380096
14 0.007533189200393
15 0.007533189200393
16 -0.015066378400786
17 0.0
18 0.0
19 0.0
20 -0.10745306451759
21 -0.10745306451759
22 0.21490612903518
23 0.0
24 0.0
25 0.0
26 0.0
27 0.0
28 -0.005454420887293
29 0.0
30 0.0
31 0.003658936764565
32 0.0
33 0.0
34 0.003658936764565
35 0.0
36 0.091252163957545
37 0.59994257998043
38 0.047838463987872
39 -0.73045072378873
40 -1.26186639828588
41 0.0
42 0.0
43 -2.32787048383494
44 0.0
45 0.0
46 2.23886944884717
47 0.0
48 0.0
49 0.75259608363316
50 0.0
51 0.0
52 -0.21682288899357
53 0.036109614462246
54 0.036109614462246
55 -0.072219228924491
56 0.0
57 0.0
58 0.0
59 0.019855068447956
60 0.019855068447956
61 -0.039710136895911
62 0.0
63 0.0
64 0.0
65 -0.016414027471054
66 -0.016414027471054
67 0.032828054942108
68 0.0
69 0.0
70 0.0
71 0.0
72 0.0
73 -0.002352356990284
74 0.0
75 0.0
76 0.001578009041287
77 0.0
78 0.0
79 0.001578009041287
80 0.0
81 0.0
82 0.0
83 0.017931884500240
84 0.0
85 0.0
86 -0.012029073812164
87 0.0
88 0.0
89 -0.012029073812164
90 0.0
 Sym=     15.1
 Ene=       2.9975
 Spin= Alpha
 Occup=    0.003188
1 0.0
2 0.0
3 0.0
4 0.0
5 0.0
6 0.0
7 0.0
8 0.0
9 0.0
10 0.0
11 0.0
12 0.0
13 0.0
14 0.0
15 0.0
16 0.0
17 0.013184040241413
18 0.0
19 0.0
20 0.0
21 0.0
22 0.0
23 0.003360714494214
24 0.0
25 0.0
26 0.0
27 0.0
28 0.0
29 0.0
30 0.0
31 0.0
32 0.0
33 0.0
34 0.0
35 0.014794818190237
36 0.0
37 0.0
38 0.0
39 0.0
40 0.0
41 0.0
42 0.0
43 0.0
44 0.0
45 0.0
46 0.0
47 0.0
48 0.0
49 0.0
50 0.0
51 0.0
52 0.0
53 0.0
54 0.0
55 0.0
56 0.42884168257460
57 0.0
58 0.0
59 0.0
60 0.0
61 0.0
62 0.66738781485360
63 0.0
64 0.0
65 0.0
66 0.0
67 0.0
68 0.072336726610689
69 0.0
70 0.0
71 0.0
72 0.0
73 0.0
74 0.0
75 0.0
76 0.0
77 0.0
78 0.0
79 0.0
80 0.000984553295213
81 0.0
82 0.0
83 0.0
84 0.0
85 0.0
86 0.0
87 0.0
88 0.0
89 0.0
90 -0.015085382630214
 Sym=     16.1
 Ene=       3.0169
 Spin= Alpha
 Occup=    0.001384
1 0.0
2 0.0
3 0.0
4 0.0
5 -1.44733414124825
6 0.0
7 0.0
8 0.60442851711146
9 0.0
10 0.0
11 0.61450045467735
12 0.0
13 0.0
14 0.0
15 0.0
16 0.0
17 0.0
18 -0.20541573890281
19 0.0
20 0.0
21 0.0
22 0.0
23 0.0
24 -0.084428607754219
25 0.0
26 0.074212000188825
27 0.0
28 0.0
29 0.033188615433688
30 0.0
31 0.0
32 -0.13275446173475
33 0.0
34 0.0
35 0.0
36 0.0
37 0.0
38 0.0
39 0.0
40 0.0
41 -2.29271256385560
42 0.0
43 0.0
44 1.99294341740310
45 0.0
46 0.0
47 1.07409711761327
48 0.0
49 0.0
50 -0.35051262953140
51 0.0
52 0.0
53 0.0
54 0.0
55 0.0
56 0.0
57 -0.091521640070352
58 0.0
59 0.0
60 0.0
61 0.0
62 0.0
63 -0.081532264055797
64 0.0
65 0.0
66 0.0
67 0.0
68 0.0
69 -0.035996361746002
70 0.0
71 0.002383820692196
72 0.0
73 0.0
74 0.001066077022784
75 0.0
76 0.0
77 -0.004264308091137
78 0.0
79 0.0
80 0.0
81 -0.010172799371299
82 0.0
83 0.0
84 -0.004549414183138
85 0.0
86 0.0
87 0.018197656732553
88 0.0
89 0.0
90 0.0
 Sym=     20.1
 Ene=       0.0554
 Spin= Alpha
 Occup=   -0.000000
1 -0.017801773997540
2 -0.048267193019501
3 -1.38285441425887
4 0.29266391113823
5 0.0
6 0.0
7 -0.44834870743399
8 0.0
9 0.0
10 -1.06339753455115
11 0.0
12 0.0
13 1.79591031042923
14 0.034657048675621
15 0.034657048675621
16 -0.069314097351242
17 0.0
18 0.0
19 0.0
20 0.11360145109680
21 0.11360145109680
22 -0.22720290219360
23 0.0
24 0.0
25 0.0
26 0.0
27 0.0
28 -0.031346205677350
29 0.0
30 0.0
31 0.021027674019374
32 0.0
33 0.0
34 0.021027674019374
35 0.0
36 0.010431690441134
37 0.057513839630927
38 0.001455797628978
39 -0.032076236765320
40 1.18633283135545
41 0.0
42 0.0
43 -0.017770711435479
44 0.0
45 0.0
46 0.020792694668066
47 0.0
48 0.0
49 -0.034358826482209
50 0.0
51 0.0
52 -0.71527213328409
53 -0.000677703585286
54 -0.000677703585286
55 0.001355407170573
56 0.0
57 0.0
58 0.0
59 0.001814571931526
60 0.001814571931526
61 -0.003629143863052
62 0.0
63 0.0
64 0.0
65 -0.023435422530138
66 -0.023435422530138
67 0.046870845060277
68 0.0
69 0.0
70 0.0
71 0.0
72 0.0
73 0.001162905893428
74 0.0
75 0.0
76 -0.000780100988742
77 0.0
78 0.0
79 -0.000780100988742
80 0.0
81 0.0
82 0.0
83 -0.004185625858986
84 0.0
85 0.0
86 0.002807803184722
87 0.0
88 0.0
89 0.002807803184722
90 0.0
 Sym=     21.1
 Ene=       0.0631
 Spin= Alpha
 Occup=   -0.000000
1 0.0
2 0.0
3 0.0
4 0.0
5 0.0
6 -0.012964681808818
7 0.0
8 0.0
9 0.61250004450486
10 0.0
11 0.0
12 -1.40515007815144
13 0.0
14 0.0
15 0.0
16 0.0
17 0.0
18 0.0
19 0.013925279220128
20 0.0
21 0.0
22 0.0
23 0.0
24 0.0
25 0.051970325045969
26 0.0
27 -0.009205566892685
28 0.0
29 0.0
30 -0.004116854668693
31 0.0
32 0.0
33 0.016467418674772
34 0.0
35 0.0
36 0.0
37 0.0
38 0.0
39 0.0
40 0.0
41 0.0
42 0.034805838340118
43 0.0
44 0.0
45 -0.013526627582459
46 0.0
47 0.0
48 -0.14329163072044
49 0.0
50 0.0
51 0.22046865453104
52 0.0
53 0.0
54 0.0
55 0.0
56 0.0
57 0.0
58 0.002311716850262
59 0.0
60 0.0
61 0.0
62 0.0
63 0.0
64 0.009337094364569
65 0.0
66 0.0
67 0.0
68 0.0
69 0.0
70 0.012404119402859
71 0.0
72 0.000220314022272
73 0.0
74 0.0
75 0.000098527426039
76 0.0
77 0.0
78 -0.000394109704157
79 0.0
80 0.0
81 0.0
82 -0.000550206718998
83 0.0
84 0.0
85 -0.000246059925071
86 0.0
87 0.0
88 0.000984239700286
89 0.0
90 0.0
 Sym=     22.1
 Ene=       0.0631
 Spin= Alpha
 Occup=   -0.000000
1 0.0
2 0.0
3 0.0
4 0.0
5 -0.012964736400527
6 0.0
7 0.0
8 0.61250023269866
9 0.0
10 0.0
11 -1.40515011059753
12 0.0
13 0.0
14 0.0
15 0.0
16 0.0
17 0.0
18 0.013925279896541
19 0.0
20 0.0
21 0.0
22 0.0
23 0.0
24 0.051970372095179
25 0.0
26 -0.009205579518570
27 0.0
28 0.0
29 -0.004116860315161
30 0.0
31 0.0
32 0.016467441260642
33 0.0
34 0.0
35 0.0
36 0.0
37 0.0
38 0.0
39 0.0
40 0.0
41 0.034805890560468
42 0.0
43 0.0
44 -0.013526628633987
45 0.0
46 0.0
47 -0.14329175148299
48 0.0
49 0.0
50 0.22046863292527
51 0.0
52 0.0
53 0.0
54 0.0
55 0.0
56 0.0
57 0.002311721996387
58 0.0
59 0.0
60 0.0
61 0.0
62 0.0
63 0.009337119951525
64 0.0
65 0.0
66 0.0
67 0.0
68 0.0
69 0.012404146369012
70 0.0
71 0.000220314456226
72 0.0
73 0.0
74 0.000098527620110
75 0.0
76 0.0
77 -0.000394110480438
78 0.0
79 0.0
80 0.0
81 -0.000550206149765
82 0.0
83 0.0
84 -0.000246059670503
85 0.0
86 0.0
87 0.000984238682011
88 0.0
89 0.0
90 0.0
 Sym=     23.1
 Ene=       0.1301
 Spin= Alpha
 Occup=   -0.000000
1 0.011122942209520
2 0.58509361611384
3 -0.25547212219826
4 -2.40046430387935
5 0.0
6 0.0
7 -0.64571122176253
8 0.0
9 0.0
10 -2.13798243176798
11 0.0
12 0.0
13 0.80661534034687
14 0.013337852259996
15 0.013337852259996
16 -0.026675704519993
17 0.0
18 0.0
19 0.0
20 0.29588524493088
21 0.29588524493088
22 -0.59177048986176
23 0.0
24 0.0
25 0.0
26 0.0
27 0.0
28 -0.14561109934948
29 0.0
30 0.0
31 0.097678894927173
32 0.0
33 0.0
34 0.097678894927173
35 0.0
36 0.007458067688279
37 0.001413948154548
38 -0.009340912897989
39 -0.12089194022472
40 2.92408299828716
41 0.0
42 0.0
43 0.026514557616571
44 0.0
45 0.0