[Molden Format]
[Atoms] Angs
LI    1    3         0.0000000000        0.0000000000       -3.1790000000
F     2    9         0.0000000000        0.0000000000        3.1790000000
[GTO]
   1 0
 s   11  1.00
  0.5988000000D+04  0.1329999901D-03
  0.8989000000D+03  0.1024999924D-02
  0.2059000000D+03  0.5271999607D-02
  0.5924000000D+02  0.2092899844D-01
  0.1987000000D+02  0.6633999506D-01
  0.7406000000D+01  0.1657749877D+00
  0.2930000000D+01  0.3150379765D+00
  0.1189000000D+01  0.3935229707D+00
  0.4798000000D+00  0.1908699858D+00
  0.7509000000D-01  0.5413999597D-02
  0.2832000000D-01 -0.1327999901D-02
 s   11  1.00
  0.5988000000D+04 -0.2100000605D-04
  0.8989000000D+03 -0.1610000464D-03
  0.2059000000D+03 -0.8200002362D-03
  0.5924000000D+02 -0.3326000958D-02
  0.1987000000D+02 -0.1051900303D-01
  0.7406000000D+01 -0.2809700809D-01
  0.2930000000D+01 -0.5593601611D-01
  0.1189000000D+01 -0.9923702859D-01
  0.4798000000D+00 -0.1121890323D+00
  0.7509000000D-01  0.5678891636D+00
  0.2832000000D-01  0.5303821528D+00
 s   11  1.00
  0.5988000000D+04  0.0000000000D+00
  0.8989000000D+03  0.0000000000D+00
  0.2059000000D+03  0.0000000000D+00
  0.5924000000D+02  0.0000000000D+00
  0.1987000000D+02  0.0000000000D+00
  0.7406000000D+01  0.0000000000D+00
  0.2930000000D+01  0.0000000000D+00
  0.1189000000D+01  0.0000000000D+00
  0.4798000000D+00  0.0000000000D+00
  0.7509000000D-01  0.1000000000D+01
  0.2832000000D-01  0.0000000000D+00
 s   11  1.00
  0.5988000000D+04  0.0000000000D+00
  0.8989000000D+03  0.0000000000D+00
  0.2059000000D+03  0.0000000000D+00
  0.5924000000D+02  0.0000000000D+00
  0.1987000000D+02  0.0000000000D+00
  0.7406000000D+01  0.0000000000D+00
  0.2930000000D+01  0.0000000000D+00
  0.1189000000D+01  0.0000000000D+00
  0.4798000000D+00  0.0000000000D+00
  0.7509000000D-01  0.0000000000D+00
  0.2832000000D-01  0.1000000000D+01
 p    5  1.00
  0.3266000000D+01  0.8630004765D-02
  0.6511000000D+00  0.4753802625D-01
  0.1696000000D+00  0.2097721158D+00
  0.5578000000D-01  0.5285222918D+00
  0.2050000000D-01  0.3827442113D+00
 p    5  1.00
  0.3266000000D+01  0.0000000000D+00
  0.6511000000D+00  0.0000000000D+00
  0.1696000000D+00  0.0000000000D+00
  0.5578000000D-01  0.1000000000D+01
  0.2050000000D-01  0.0000000000D+00
 p    5  1.00
  0.3266000000D+01  0.0000000000D+00
  0.6511000000D+00  0.0000000000D+00
  0.1696000000D+00  0.0000000000D+00
  0.5578000000D-01  0.0000000000D+00
  0.2050000000D-01  0.1000000000D+01
 d    1  1.00
  0.1900000000D+00  0.1000000000D+01
 d    1  1.00
  0.7250000000D-01  0.1000000000D+01
 f    1  1.00
  0.1270000000D+00  0.1000000000D+01
  
   2 0
 s   10  1.00
  0.1950000000D+05  0.5070001688D-03
  0.2923000000D+04  0.3923001306D-02
  0.6645000000D+03  0.2020000673D-01
  0.1875000000D+03  0.7901002631D-01
  0.6062000000D+02  0.2304390767D+00
  0.2142000000D+02  0.4328721441D+00
  0.7950000000D+01  0.3499641165D+00
  0.2257000000D+01  0.4323301440D-01
  0.8815000000D+00 -0.7892002628D-02
  0.3041000000D+00  0.2384000794D-02
 s   10  1.00
  0.1950000000D+05 -0.1169999533D-03
  0.2923000000D+04 -0.9119996360D-03
  0.6645000000D+03 -0.4716998117D-02
  0.1875000000D+03 -0.1908599238D-01
  0.6062000000D+02 -0.5965497619D-01
  0.2142000000D+02 -0.1400099441D+00
  0.7950000000D+01 -0.1767819294D+00
  0.2257000000D+01  0.1716249315D+00
  0.8815000000D+00  0.6050427585D+00
  0.3041000000D+00  0.3695118525D+00
 s   10  1.00
  0.1950000000D+05  0.0000000000D+00
  0.2923000000D+04  0.0000000000D+00
  0.6645000000D+03  0.0000000000D+00
  0.1875000000D+03  0.0000000000D+00
  0.6062000000D+02  0.0000000000D+00
  0.2142000000D+02  0.0000000000D+00
  0.7950000000D+01  0.0000000000D+00
  0.2257000000D+01  0.1000000000D+01
  0.8815000000D+00  0.0000000000D+00
  0.3041000000D+00  0.0000000000D+00
 s   10  1.00
  0.1950000000D+05  0.0000000000D+00
  0.2923000000D+04  0.0000000000D+00
  0.6645000000D+03  0.0000000000D+00
  0.1875000000D+03  0.0000000000D+00
  0.6062000000D+02  0.0000000000D+00
  0.2142000000D+02  0.0000000000D+00
  0.7950000000D+01  0.0000000000D+00
  0.2257000000D+01  0.0000000000D+00
  0.8815000000D+00  0.0000000000D+00
  0.3041000000D+00  0.1000000000D+01
 s    1  1.00
  0.9158000000D-01  0.1000000000D+01
 p    5  1.00
  0.4388000000D+02  0.1666500251D-01
  0.9926000000D+01  0.1044720157D+00
  0.2930000000D+01  0.3172600478D+00
  0.9132000000D+00  0.4873430734D+00
  0.2672000000D+00  0.3346040504D+00
 p    5  1.00
  0.4388000000D+02  0.0000000000D+00
  0.9926000000D+01  0.0000000000D+00
  0.2930000000D+01  0.0000000000D+00
  0.9132000000D+00  0.1000000000D+01
  0.2672000000D+00  0.0000000000D+00
 p    5  1.00
  0.4388000000D+02  0.0000000000D+00
  0.9926000000D+01  0.0000000000D+00
  0.2930000000D+01  0.0000000000D+00
  0.9132000000D+00  0.0000000000D+00
  0.2672000000D+00  0.1000000000D+01
 p    1  1.00
  0.7361000000D-01  0.1000000000D+01
 d    1  1.00
  0.3107000000D+01  0.1000000000D+01
 d    1  1.00
  0.8550000000D+00  0.1000000000D+01
 d    1  1.00
  0.2920000000D+00  0.1000000000D+01
 f    1  1.00
  0.1917000000D+01  0.1000000000D+01
 f    1  1.00
  0.7240000000D+00  0.1000000000D+01


[MO]
 Sym=      1.1
 Ene=     -26.2780
 Spin= Alpha
 Occup=    2.000000
1 -0.000032627528133
2 -0.000149967911267
3 0.000035195039123
4 0.000132085956824
5 0.0
6 0.0
7 0.000075442369957
8 0.0
9 0.0
10 -0.000110725778254
11 0.0
12 0.0
13 0.000071515062015
14 0.000008674477534
15 0.000008674477534
16 -0.000017348955069
17 0.0
18 0.0
19 0.0
20 -0.000013630461919
21 -0.000013630461919
22 0.000027260923839
23 0.0
24 0.0
25 0.0
26 0.0
27 0.0
28 0.000004980318848
29 0.0
30 0.0
31 -0.000003340899448
32 0.0
33 0.0
34 -0.000003340899448
35 0.0
36 0.99947319948134
37 -0.001367978206136
38 0.000546435393519
39 0.001703929136790
40 -0.000815150540401
41 0.0
42 0.0
43 -0.000035749510743
44 0.0
45 0.0
46 0.000032209473143
47 0.0
48 0.0
49 -0.000009446604252
50 0.0
51 0.0
52 0.000032771014000
53 0.000000351886839
54 0.000000351886839
55 -0.000000703773677
56 0.0
57 0.0
58 0.0
59 -0.000000663609408
60 -0.000000663609408
61 0.000001327218815
62 0.0
63 0.0
64 0.0
65 0.000001332432322
66 0.000001332432322
67 -0.000002664864643
68 0.0
69 0.0
70 0.0
71 0.0
72 0.0
73 -0.000000042893925
74 0.0
75 0.0
76 0.000000028774120
77 0.0
78 0.0
79 0.000000028774120
80 0.0
81 0.0
82 0.0
83 0.000000080818907
84 0.0
85 0.0
86 -0.000000054214971
87 0.0
88 0.0
89 -0.000000054214971
90 0.0
 Sym=      2.1
 Ene=      -2.5354
 Spin= Alpha
 Occup=    2.000000
1 1.00068379918017
2 0.002047006898234
3 -0.001544666556214
4 -0.001224134062738
5 0.0
6 0.0
7 -0.001092932992892
8 0.0
9 0.0
10 0.000769258095022
11 0.0
12 0.0
13 0.000292161622466
14 0.000001215129915
15 0.000001215129915
16 -0.000002430259830
17 0.0
18 0.0
19 0.0
20 0.000006172086460
21 0.000006172086460
22 -0.000012344172920
23 0.0
24 0.0
25 0.0
26 0.0
27 0.0
28 -0.000003714860569
29 0.0
30 0.0
31 0.000002492004228
32 0.0
33 0.0
34 0.000002492004228
35 0.0
36 0.000018721214381
37 0.000055673168231
38 -0.000013374182392
39 -0.000109939422379
40 0.000114220418079
41 0.0
42 0.0
43 0.000011173087480
44 0.0
45 0.0
46 -0.000018153648372
47 0.0
48 0.0
49 0.000044974502484
50 0.0
51 0.0
52 -0.000104722593884
53 -0.000000470388687
54 -0.000000470388687
55 0.000000940777374
56 0.0
57 0.0
58 0.0
59 0.000002537127027
60 0.000002537127027
61 -0.000005074254054
62 0.0
63 0.0
64 0.0
65 -0.000005910442083
66 -0.000005910442083
67 0.000011820884165
68 0.0
69 0.0
70 0.0
71 0.0
72 0.0
73 0.000000148690784
74 0.0
75 0.0
76 -0.000000099744810
77 0.0
78 0.0
79 -0.000000099744810
80 0.0
81 0.0
82 0.0
83 -0.000000424327373
84 0.0
85 0.0
86 0.000000284647455
87 0.0
88 0.0
89 0.000000284647455
90 0.0
 Sym=      3.1
 Ene=      -1.4794
 Spin= Alpha
 Occup=    2.000000
1 -0.000037001507284
2 -0.000215390695040
3 0.000010515509116
4 0.000205779314412
5 0.0
6 0.0
7 0.000299552500209
8 0.0
9 0.0
10 -0.000408042875237
11 0.0
12 0.0
13 0.000187345457998
14 0.000005548113109
15 0.000005548113109
16 -0.000011096226217
17 0.0
18 0.0
19 0.0
20 -0.000009064348405
21 -0.000009064348405
22 0.000018128696811
23 0.0
24 0.0
25 0.0
26 0.0
27 0.0
28 -0.000004952291136
29 0.0
30 0.0
31 0.000003322097887
32 0.0
33 0.0
34 0.000003322097887
35 0.0
36 -0.000773228923883
37 0.99075114370486
38 -0.001053305159543
39 0.002123849043445
40 0.013918135961048
41 0.0
42 0.0
43 0.002050979042701
44 0.0
45 0.0
46 -0.000008192593731
47 0.0
48 0.0
49 -0.000280893238080
50 0.0
51 0.0
52 0.000093898534961
53 -0.000000420608162
54 -0.000000420608162
55 0.000000841216325
56 0.0
57 0.0
58 0.0
59 -0.000002092036131
60 -0.000002092036131
61 0.000004184072262
62 0.0
63 0.0
64 0.0
65 -0.000025400109750
66 -0.000025400109750
67 0.000050800219499
68 0.0
69 0.0
70 0.0
71 0.0
72 0.0
73 0.000000893086192
74 0.0
75 0.0
76 -0.000000599100431
77 0.0
78 0.0
79 -0.000000599100431
80 0.0
81 0.0
82 0.0
83 -0.000004471937329
84 0.0
85 0.0
86 0.000002999866757
87 0.0
88 0.0
89 0.000002999866757
90 0.0
 Sym=      4.1
 Ene=      -0.5132
 Spin= Alpha
 Occup=    1.724724
1 0.0
2 0.0
3 0.0
4 0.0
5 0.0
6 0.000123720679285
7 0.0
8 0.0
9 -0.000119205266395
10 0.0
11 0.0
12 0.000227092102150
13 0.0
14 0.0
15 0.0
16 0.0
17 0.0
18 0.0
19 -0.000048969654223
20 0.0
21 0.0
22 0.0
23 0.0
24 0.0
25 0.000171743998419
26 0.0
27 -0.000026813435548
28 0.0
29 0.0
30 -0.000011991332919
31 0.0
32 0.0
33 0.000047965331676
34 0.0
35 0.0
36 0.0
37 0.0
38 0.0
39 0.0
40 0.0
41 0.0
42 0.98300197630418
43 0.0
44 0.0
45 -0.006366995495093
46 0.0
47 0.0
48 0.003268419756609
49 0.0
50 0.0
51 0.058900434900386
52 0.0
53 0.0
54 0.0
55 0.0
56 0.0
57 0.0
58 -0.000071547143078
59 0.0
60 0.0
61 0.0
62 0.0
63 0.0
64 0.000058910151170
65 0.0
66 0.0
67 0.0
68 0.0
69 0.0
70 -0.001012060139734
71 0.0
72 0.000002513281269
73 0.0
74 0.0
75 0.000001123973553
76 0.0
77 0.0
78 -0.000004495894212
79 0.0
80 0.0
81 0.0
82 -0.000026035114886
83 0.0
84 0.0
85 -0.000011643257337
86 0.0
87 0.0
88 0.000046573029350
89 0.0
90 0.0
 Sym=      9.1
 Ene=       0.9414
 Spin= Alpha
 Occup=    0.018143
1 0.0
2 0.0
3 0.0
4 0.0
5 -0.001108844604432
6 0.0
7 0.0
8 0.002057513624360
9 0.0
10 0.0
11 0.000313033433752
12 0.0
13 0.0
14 0.0
15 0.0
16 0.0
17 0.0
18 -0.000310116643264
19 0.0
20 0.0
21 0.0
22 0.0
23 0.0
24 0.001261249003210
25 0.0
26 -0.000255329920219
27 0.0
28 0.0
29 -0.000114187011660
30 0.0
31 0.0
32 0.000456748046639
33 0.0
34 0.0
35 0.0
36 0.0
37 0.0
38 0.0
39 0.0
40 0.0
41 -1.30600008010371
42 0.0
43 0.0
44 0.36861323858956
45 0.0
46 0.0
47 1.07494408147629
48 0.0
49 0.0
50 0.41638738669217
51 0.0
52 0.0
53 0.0
54 0.0
55 0.0
56 0.0
57 -0.000899821473757
58 0.0
59 0.0
60 0.0
61 0.0
62 0.0
63 -0.000501530451408
64 0.0
65 0.0
66 0.0
67 0.0
68 0.0
69 -0.012401084827553
70 0.0
71 0.000028008821061
72 0.0
73 0.0
74 0.000012525925572
75 0.0
76 0.0
77 -0.000050103702289
78 0.0
79 0.0
80 0.0
81 -0.000263937320930
82 0.0
83 0.0
84 -0.000118036358280
85 0.0
86 0.0
87 0.000472145433118
88 0.0
89 0.0
90 0.0
 Sym=     12.1
 Ene=       3.1312
 Spin= Alpha
 Occup=    0.003142
1 0.0
2 0.0
3 0.0
4 0.0
5 0.0
6 0.0
7 0.0
8 0.0
9 0.0
10 0.0
11 0.0
12 0.0
13 0.0
14 0.000015073085191
15 -0.000015073085191
16 0.0
17 0.0
18 0.0
19 0.0
20 -0.000024918773261
21 0.000024918773261
22 0.0
23 0.0
24 0.0
25 0.0
26 0.0
27 0.0
28 0.0
29 0.0
30 0.0
31 -0.000006933257378
32 0.0
33 0.0
34 0.000006933257378
35 0.0
36 0.0
37 0.0
38 0.0
39 0.0
40 0.0
41 0.0
42 0.0
43 0.0
44 0.0
45 0.0
46 0.0
47 0.0
48 0.0
49 0.0
50 0.0
51 0.0
52 0.0
53 -0.37251992384969
54 0.37251992384969
55 0.0
56 0.0
57 0.0
58 0.0
59 -0.57203824787043
60 0.57203824787043
61 0.0
62 0.0
63 0.0
64 0.0
65 -0.077864302890519
66 0.077864302890519
67 0.0
68 0.0
69 0.0
70 0.0
71 0.0
72 0.0
73 0.0
74 0.0
75 0.0
76 0.000290162774826
77 0.0
78 0.0
79 -0.000290162774826
80 0.0
81 0.0
82 0.0
83 0.0
84 0.0
85 0.0
86 0.000745365314147
87 0.0
88 0.0
89 -0.000745365314147
90 0.0
 Sym=     18.1
 Ene=       2.9447
 Spin= Alpha
 Occup=    0.001510
1 0.0
2 0.0
3 0.0
4 0.0
5 0.0
6 -0.006346590825711
7 0.0
8 0.0
9 0.009812498165716
10 0.0
11 0.0
12 -0.002669800565113
13 0.0
14 0.0
15 0.0
16 0.0
17 0.0
18 0.0
19 0.000137263560258
20 0.0
21 0.0
22 0.0
23 0.0
24 0.0
25 0.001126052654297
26 0.0
27 -0.000330914050000
28 0.0
29 0.0
30 -0.000147989262102
31 0.0
32 0.0
33 0.000591957048407
34 0.0
35 0.0
36 0.0
37 0.0
38 0.0
39 0.0
40 0.0
41 0.0
42 2.28128659090262
43 0.0
44 0.0
45 -1.96172970515805
46 0.0
47 0.0
48 -0.97967649447818
49 0.0
50 0.0
51 0.74720269629965
52 0.0
53 0.0
54 0.0
55 0.0
56 0.0
57 0.0
58 0.015445772749494
59 0.0
60 0.0
61 0.0
62 0.0
63 0.0
64 0.021345781058031
65 0.0
66 0.0
67 0.0
68 0.0
69 0.0
70 -0.025022160588258
71 0.0
72 -0.000089593748954
73 0.0
74 0.0
75 -0.000040067542604
76 0.0
77 0.0
78 0.000160270170416
79 0.0
80 0.0
81 0.0
82 -0.000665703266459
83 0.0
84 0.0
85 -0.000297711551329
86 0.0
87 0.0
88 0.001190846205317
89 0.0
90 0.0
 Sym=      5.1
 Ene=      -0.5132
 Spin= Alpha
 Occup=    1.724724
1 0.0
2 0.0
3 0.0
4 0.0
5 0.000123741867992
6 0.0
7 0.0
8 -0.000119196298023
9 0.0
10 0.0
11 0.000227062632722
12 0.0
13 0.0
14 0.0
15 0.0
16 0.0
17 0.0
18 -0.000048964859373
19 0.0
20 0.0
21 0.0
22 0.0
23 0.0
24 0.000171717674799
25 0.0
26 -0.000026808047971
27 0.0
28 0.0
29 -0.000011988923522
30 0.0
31 0.0
32 0.000047955694086
33 0.0
34 0.0
35 0.0
36 0.0
37 0.0
38 0.0
39 0.0
40 0.0
41 0.98300192058454
42 0.0
43 0.0
44 -0.006366915944384
45 0.0
46 0.0
47 0.003268266872660
48 0.0
49 0.0
50 0.058900691278772
51 0.0
52 0.0
53 0.0
54 0.0
55 0.0
56 0.0
57 -0.000071545215298
58 0.0
59 0.0
60 0.0
61 0.0
62 0.0
63 0.000058911716107
64 0.0
65 0.0
66 0.0
67 0.0
68 0.0
69 -0.001012066574535
70 0.0
71 0.000002506130908
72 0.0
73 0.0
74 0.000001120775814
75 0.0
76 0.0
77 -0.000004483103256
78 0.0
79 0.0
80 0.0
81 -0.000026031746526
82 0.0
83 0.0
84 -0.000011641750961
85 0.0
86 0.0
87 0.000046567003844
88 0.0
89 0.0
90 0.0
 Sym=      8.1
 Ene=       0.9141
 Spin= Alpha
 Occup=    0.018596
1 -0.000196223028060
2 0.026499622531290
3 0.002590727598613
4 -0.003316437194506
5 0.0
6 0.0
7 -0.001191639948795
8 0.0
9 0.0
10 -0.006285923239554
11 0.0
12 0.0
13 -0.001050606244973
14 0.000178587043852
15 0.000178587043852
16 -0.000357174087705
17 0.0
18 0.0
19 0.0
20 0.001281372887255
21 0.001281372887255
22 -0.002562745774510
23 0.0
24 0.0
25 0.0
26 0.0
27 0.0
28 -0.000531564747831
29 0.0
30 0.0
31 0.000356584473178
32 0.0
33 0.0
34 0.000356584473178
35 0.0
36 0.000481570624402
37 0.016576156455124
38 0.001548177586582
39 0.012387914383246
40 -0.048866153272578
41 0.0
42 0.0
43 -1.28603960241526
44 0.0
45 0.0
46 0.35784531695626
47 0.0
48 0.0
49 1.05067498974161
50 0.0
51 0.0
52 0.43531374961909
53 0.000555486732584
54 0.000555486732584
55 -0.001110973465168
56 0.0
57 0.0
58 0.0
59 0.000176562802518
60 0.000176562802518
61 -0.000353125605036
62 0.0
63 0.0
64 0.0
65 0.007700429665401
66 0.007700429665401
67 -0.015400859330802
68 0.0
69 0.0
70 0.0
71 0.0
72 0.0
73 -0.000065229521555
74 0.0
75 0.0
76 0.000043757293301
77 0.0
78 0.0
79 0.000043757293301
80 0.0
81 0.0
82 0.0
83 0.000557584880384
84 0.0
85 0.0
86 -0.000374039308729
87 0.0
88 0.0
89 -0.000374039308729
90 0.0
 Sym=     13.1
 Ene=       3.1284
 Spin= Alpha
 Occup=    0.003142
1 -0.000570038220554
2 -0.004614170566172
3 0.000270638698340
4 0.002948014824305
5 0.0
6 0.0
7 -0.000667048885182
8 0.0
9 0.0
10 0.000502230067521
11 0.0
12 0.0
13 0.001275194014471
14 0.000278603687295
15 0.000278603687295
16 -0.000557207374591
17 0.0
18 0.0
19 0.0
20 -0.000517761210997
21 -0.000517761210997
22 0.001035522421993
23 0.0
24 0.0
25 0.0
26 0.0
27 0.0
28 0.000192502495306
29 0.0
30 0.0
31 -0.000129134599602
32 0.0
33 0.0
34 -0.000129134599602
35 0.0
36 -0.000430920538997
37 -0.003579795387321
38 -0.000312982849362
39 0.002876459001752
40 0.001929431071994
41 0.0
42 0.0
43 -0.063190159724030
44 0.0
45 0.0
46 0.045896017812725
47 0.0
48 0.0
49 0.035559866220675
50 0.0
51 0.0
52 -0.014543842002926
53 -0.21485767989842
54 -0.21485767989842
55 0.42971535979684
56 0.0
57 0.0
58 0.0
59 -0.33000450969946
60 -0.33000450969946
61 0.66000901939893
62 0.0
63 0.0
64 0.0
65 -0.045390421494395
66 -0.045390421494395
67 0.090780842988789
68 0.0
69 0.0
70 0.0
71 0.0
72 0.0
73 -0.000443929088985
74 0.0
75 0.0
76 0.000297796686048
77 0.0
78 0.0
79 0.000297796686048
80 0.0
81 0.0
82 0.0
83 -0.001217738613784
84 0.0
85 0.0
86 0.000816883895774
87 0.0
88 0.0
89 0.000816883895774
90 0.0
 Sym=     17.1
 Ene=       2.9447
 Spin= Alpha
 Occup=    0.001510
1 0.0
2 0.0
3 0.0
4 0.0
5 -0.006345938674216
6 0.0
7 0.0
8 0.009811829488165
9 0.0
10 0.0
11 -0.002669328815756
12 0.0
13 0.0
14 0.0
15 0.0
16 0.0
17 0.0
18 0.000137296525092
19 0.0
20 0.0
21 0.0
22 0.0
23 0.0
24 0.001126146148445
25 0.0
26 -0.000330820084361
27 0.0
28 0.0
29 -0.000147947239391
30 0.0
31 0.0
32 0.000591788957562
33 0.0
34 0.0
35 0.0
36 0.0
37 0.0
38 0.0
39 0.0
40 0.0
41 2.28128112456759
42 0.0
43 0.0
44 -1.96171970619100
45 0.0
46 0.0
47 -0.97968374060810
48 0.0
49 0.0
50 0.74720656534746
51 0.0
52 0.0
53 0.0
54 0.0
55 0.0
56 0.0
57 0.015446369979603
58 0.0
59 0.0
60 0.0
61 0.0
62 0.0
63 0.021346120609232
64 0.0
65 0.0
66 0.0
67 0.0
68 0.0
69 -0.025022773400359
70 0.0
71 -0.000089561127716
72 0.0
73 0.0
74 -0.000040052953943
75 0.0
76 0.0
77 0.000160211815772
78 0.0
79 0.0
80 0.0
81 -0.000665722258399
82 0.0
83 0.0
84 -0.000297720044783
85 0.0
86 0.0
87 0.001190880179133
88 0.0
89 0.0
90 0.0
 Sym=      6.1
 Ene=      -0.5129
 Spin= Alpha
 Occup=    1.724177
1 0.000123477085632
2 0.003192695980466
3 0.000363584409995
4 -0.001418053017324
5 0.0
6 0.0
7 -0.000646314902914
8 0.0
9 0.0
10 0.000188363633918
11 0.0
12 0.0
13 -0.000963793862716
14 -0.000052570432758
15 -0.000052570432758
16 0.000105140865516
17 0.0
18 0.0
19 0.0
20 0.000274112760258
21 0.000274112760258
22 -0.000548225520517
23 0.0
24 0.0
25 0.0
26 0.0
27 0.0
28 -0.000060392027244
29 0.0
30 0.0
31 0.000040512203465
32 0.0
33 0.0
34 0.000040512203465
35 0.0
36 -0.000063551266280
37 -0.000983077267036
38 0.000098756849469
39 0.002147067165180
40 -0.004817188706939
41 0.0
42 0.0
43 0.98256132116682
44 0.0
45 0.0
46 -0.006311984720851
47 0.0
48 0.0
49 0.003117948062316
50 0.0
51 0.0
52 0.060085728047640
53 0.000043326877807
54 0.000043326877807
55 -0.000086653755614
56 0.0
57 0.0
58 0.0
59 -0.000042566692910
60 -0.000042566692910
61 0.000085133385820
62 0.0
63 0.0
64 0.0
65 0.000625517935988
66 0.000625517935988
67 -0.001251035871977
68 0.0
69 0.0
70 0.0
71 0.0
72 0.0
73 -0.000005613444347
74 0.0
75 0.0
76 0.000003765612944
77 0.0
78 0.0
79 0.000003765612944
80 0.0
81 0.0
82 0.0
83 0.000054452576589
84 0.0
85 0.0
86 -0.000036527898841
87 0.0
88 0.0
89 -0.000036527898841
90 0.0
 Sym=      7.1
 Ene=      -0.0876
 Spin= Alpha
 Occup=    0.749999
1 0.000568357326493
2 1.00039606187966
3 -0.000061763241448
4 -0.000228548824190
5 0.0
6 0.0
7 -0.000084370416974
8 0.0
9 0.0
10 -0.000039442161175
11 0.0
12 0.0
13 -0.000302782819337
14 -0.000010973205821
15 -0.000010973205821
16 0.000021946411642
17 0.0
18 0.0
19 0.0
20 0.000059021666021
21 0.000059021666021
22 -0.000118043332043
23 0.0
24 0.0
25 0.0
26 0.0
27 0.0
28 -0.000020846877835
29 0.0
30 0.0
31 0.000013984510787
32 0.0
33 0.0
34 0.000013984510787
35 0.0
36 -0.000045872043170
37 -0.002329233168535
38 -0.000035872319950
39 -0.000964808986512
40 -0.000524623198068
41 0.0
42 0.0
43 0.003302277602350
44 0.0
45 0.0
46 -0.000029166536807
47 0.0
48 0.0
49 0.000177069035289
50 0.0
51 0.0
52 0.002043947367338
53 -0.000002967228385
54 -0.000002967228385
55 0.000005934456771
56 0.0
57 0.0
58 0.0
59 -0.000037323544857
60 -0.000037323544857
61 0.000074647089714
62 0.0
63 0.0
64 0.0
65 0.000020751877178
66 0.000020751877178
67 -0.000041503754356
68 0.0
69 0.0
70 0.0
71 0.0
72 0.0
73 -0.000001299007078
74 0.0
75 0.0
76 0.000000871400439
77 0.0
78 0.0
79 0.000000871400439
80 0.0
81 0.0
82 0.0
83 -0.000003291595007
84 0.0
85 0.0
86 0.000002208069057
87 0.0
88 0.0
89 0.000002208069057
90 0.0
 Sym=     10.1
 Ene=       0.9414
 Spin= Alpha
 Occup=    0.018143
1 0.0
2 0.0
3 0.0
4 0.0
5 0.0
6 -0.001108963615991
7 0.0
8 0.0
9 0.002057741487556
10 0.0
11 0.0
12 0.000312763397024
13 0.0
14 0.0
15 0.0
16 0.0
17 0.0
18 0.0
19 -0.000310152218013
20 0.0
21 0.0
22 0.0
23 0.0
24 0.0
25 0.001261410658140
26 0.0
27 -0.000255399445428
28 0.0
29 0.0
30 -0.000114218104278
31 0.0
32 0.0
33 0.000456872417114
34 0.0
35 0.0
36 0.0
37 0.0
38 0.0
39 0.0
40 0.0
41 0.0
42 -1.30600170376836
43 0.0
44 0.0
45 0.36861317936327
46 0.0
47 0.0
48 1.07494827352487
49 0.0
50 0.0
51 0.41638373488259
52 0.0
53 0.0
54 0.0
55 0.0
56 0.0
57 0.0
58 -0.000899629122576
59 0.0
60 0.0
61 0.0
62 0.0
63 0.0
64 -0.000501888640920
65 0.0
66 0.0
67 0.0
68 0.0
69 0.0
70 -0.012400860715873
71 0.0
72 0.000028179354269
73 0.0
74 0.0
75 0.000012602190341
76 0.0
77 0.0
78 -0.000050408761365
79 0.0
80 0.0
81 0.0
82 -0.000264002591090
83 0.0
84 0.0
85 -0.000118065547983
86 0.0
87 0.0
88 0.000472262191931
89 0.0
90 0.0
 Sym=     14.1
 Ene=       3.1293
 Spin= Alpha
 Occup=    0.003142
1 0.0
2 0.0
3 0.0
4 0.0
5 -0.000765852047806
6 0.0
7 0.0
8 0.001074022399910
9 0.0
10 0.0
11 -0.000621514331504
12 0.0
13 0.0
14 0.0
15 0.0
16 0.0
17 0.0
18 0.000187774302936
19 0.0
20 0.0
21 0.0
22 0.0
23 0.0
24 -0.000324501161680
25 0.0
26 0.000043080142411
27 0.0
28 0.0
29 0.000019266025382
30 0.0
31 0.0
32 -0.000077064101530
33 0.0
34 0.0
35 0.0
36 0.0
37 0.0
38 0.0
39 0.0
40 0.0
41 -0.049107230257820
42 0.0
43 0.0
44 0.035734778823230
45 0.0
46 0.0
47 0.027474651038386
48 0.0
49 0.0
50 -0.011205772792930
51 0.0
52 0.0
53 0.0
54 0.0
55 0.0
56 0.0
57 0.42986538982131
58 0.0
59 0.0
60 0.0
61 0.0
62 0.0
63 0.66019875056790
64 0.0
65 0.0
66 0.0
67 0.0
68 0.0
69 0.090511723974171
70 0.0
71 0.000257188476635
72 0.0
73 0.0
74 0.000115018183357
75 0.0
76 0.0
77 -0.000460072733429
78 0.0
79 0.0
80 0.0
81 0.000692439752497
82 0.0
83 0.0
84 0.000309668471381
85 0.0
86 0.0
87 -0.001238673885525
88 0.0
89 0.0
90 0.0
 Sym=     11.1
 Ene=       3.1312
 Spin= Alpha
 Occup=    0.003142
1 0.0
2 0.0
3 0.0
4 0.0
5 0.0
6 0.0
7 0.0
8 0.0
9 0.0
10 0.0
11 0.0
12 0.0
13 0.0
14 0.0
15 0.0
16 0.0
17 -0.000017404932829
18 0.0
19 0.0
20 0.0
21 0.0
22 0.0
23 0.000028774895453
24 0.0
25 0.0
26 0.0
27 0.0
28 0.0
29 0.0
30 0.0
31 0.0
32 0.0
33 0.0
34 0.0
35 0.000008005739376
36 0.0
37 0.0
38 0.0
39 0.0
40 0.0
41 0.0
42 0.0
43 0.0
44 0.0
45 0.0
46 0.0
47 0.0
48 0.0
49 0.0
50 0.0
51 0.0
52 0.0
53 0.0
54 0.0
55 0.0
56 0.43014895470270
57 0.0
58 0.0
59 0.0
60 0.0
61 0.0
62 0.66053287358959
63 0.0
64 0.0
65 0.0
66 0.0
67 0.0
68 0.089909953813780
69 0.0
70 0.0
71 0.0
72 0.0
73 0.0
74 0.0
75 0.0
76 0.0
77 0.0
78 0.0
79 0.0
80 -0.000335049693520
81 0.0
82 0.0
83 0.0
84 0.0
85 0.0
86 0.0
87 0.0
88 0.0
89 0.0
90 -0.000860674268099
 Sym=     19.1
 Ene=       1.4078
 Spin= Alpha
 Occup=    0.001143
1 0.000971467663836
2 0.003211555646301
3 -0.001189198647603
4 -0.003753681179466
5 0.0
6 0.0
7 -0.002103430951894
8 0.0
9 0.0
10 0.006143561319543
11 0.0
12 0.0
13 -0.003069382152529
14 -0.000409056919147
15 -0.000409056919147
16 0.000818113838293
17 0.0
18 0.0
19 0.0
20 0.000183900724975
21 0.000183900724975
22 -0.000367801449951
23 0.0
24 0.0
25 0.0
26 0.0
27 0.0
28 0.000004623249628
29 0.0
30 0.0
31 -0.000003101370134
32 0.0
33 0.0
34 -0.000003101370134
35 0.0
36 0.15715564803379
37 1.59234871727774
38 0.29648064538345
39 -1.95370397633460
40 -0.065159444160116
41 0.0
42 0.0
43 -0.40038758040685
44 0.0
45 0.0
46 0.36167564473452
47 0.0
48 0.0
49 0.15422945541744
50 0.0
51 0.0
52 -0.14427430091561
53 0.001173299360203
54 0.001173299360203
55 -0.002346598720405
56 0.0
57 0.0
58 0.0
59 0.001407366203082
60 0.001407366203082
61 -0.002814732406164
62 0.0
63 0.0
64 0.0
65 -0.002611912337627
66 -0.002611912337627
67 0.005223824675254
68 0.0
69 0.0
70 0.0
71 0.0
72 0.0
73 -0.000107549282960
74 0.0
75 0.0
76 0.000072146252289
77 0.0
78 0.0
79 0.000072146252289
80 0.0
81 0.0
82 0.0
83 -0.000220150104622
84 0.0
85 0.0
86 0.000147681179757
87 0.0
88 0.0
89 0.000147681179757
90 0.0
 Sym=     15.1
 Ene=       3.1293
 Spin= Alpha
 Occup=    0.003142
1 0.0
2 0.0
3 0.0
4 0.0
5 0.0
6 -0.000766120238390
7 0.0
8 0.0
9 0.001074108907216
10 0.0
11 0.0
12 -0.000621466086245
13 0.0
14 0.0
15 0.0
16 0.0
17 0.0
18 0.0
19 0.000187745759313
20 0.0
21 0.0
22 0.0
23 0.0
24 0.0
25 -0.000324418770215
26 0.0
27 0.000043042627576
28 0.0
29 0.0
30 0.000019249248238
31 0.0
32 0.0
33 -0.000076996992953
34 0.0
35 0.0
36 0.0
37 0.0
38 0.0
39 0.0
40 0.0
41 0.0
42 -0.049106358262386
43 0.0
44 0.0
45 0.035734036421832
46 0.0
47 0.0
48 0.027474233645782
49 0.0
50 0.0
51 -0.011205424855909
52 0.0
53 0.0
54 0.0
55 0.0
56 0.0
57 0.0
58 0.42986541649363
59 0.0
60 0.0
61 0.0
62 0.0
63 0.0
64 0.66019877314580
65 0.0
66 0.0
67 0.0
68 0.0
69 0.0
70 0.090511661775899
71 0.0
72 0.000257208226138
73 0.0
74 0.0
75 0.000115027015603
76 0.0
77 0.0
78 -0.000460108062414
79 0.0
80 0.0
81 0.0
82 0.000692428396974
83 0.0
84 0.0
85 0.000309663393037
86 0.0
87 0.0
88 -0.001238653572147
89 0.0
90 0.0
 Sym=     16.1
 Ene=       2.8126
 Spin= Alpha
 Occup=    0.001622
1 -0.004114368491085
2 0.018006206824977
3 0.005887654367931
4 0.014612592601742
5 0.0
6 0.0
7 0.000477237025730
8 0.0
9 0.0
10 -0.018816316734435
11 0.0
12 0.0
13 0.010961843498869
14 0.002164829046415
15 0.002164829046415
16 -0.004329658092830
17 0.0
18 0.0
19 0.0
20 -0.000948587823678
21 -0.000948587823678
22 0.001897175647356
23 0.0
24 0.0
25 0.0
26 0.0
27 0.0
28 0.000207051011693
29 0.0
30 0.0
31 -0.000138894041086
32 0.0
33 0.0
34 -0.000138894041086
35 0.0
36 0.024849897956343
37 0.25546206637101
38 0.040368834961085
39 -0.24584308600633
40 -0.10742151542392
41 0.0
42 0.0
43 2.22358026327263
44 0.0
45 0.0
46 -1.87860355638232
47 0.0
48 0.0
49 -1.00881712423977
50 0.0
51 0.0
52 0.75055814019133
53 -0.009425338505446
54 -0.009425338505446
55 0.018850677010892
56 0.0
57 0.0
58 0.0
59 -0.013678623516115
60 -0.013678623516115
61 0.027357247032229
62 0.0
63 0.0
64 0.0
65 0.014756832122444
66 0.014756832122444
67 -0.029513664244887
68 0.0
69 0.0
70 0.0
71 0.0
72 0.0
73 0.000119822757322
74 0.0
75 0.0
76 -0.000080379549187
77 0.0
78 0.0
79 -0.000080379549187
80 0.0
81 0.0
82 0.0
83 0.001336742251257
84 0.0
85 0.0
86 -0.000896713962662
87 0.0
88 0.0
89 -0.000896713962662
90 0.0
 Sym=     20.1
 Ene=       0.0170
 Spin= Alpha
 Occup=   -0.000000
1 0.0
2 0.0
3 0.0
4 0.0
5 0.0
6 -0.52596932088277
7 0.0
8 0.0
9 0.19951259424935
10 0.0
11 0.0
12 -0.69373692367231
13 0.0
14 0.0
15 0.0
16 0.0
17 0.0
18 0.0
19 -0.005159244867886
20 0.0
21 0.0
22 0.0
23 0.0
24 0.0
25 0.023821036500888
26 0.0
27 -0.000970394776655
28 0.0
29 0.0
30 -0.000433973737122
31 0.0
32 0.0
33 0.001735894948490
34 0.0
35 0.0
36 0.0
37 0.0
38 0.0
39 0.0
40 0.0
41 0.0
42 0.008120910006636
43 0.0
44 0.0
45 -0.002070826100812
46 0.0
47 0.0
48 -0.031069519856981
49 0.0
50 0.0
51 0.067801873078772
52 0.0
53 0.0
54 0.0
55 0.0
56 0.0
57 0.0
58 -0.000270024647618
59 0.0
60 0.0
61 0.0
62 0.0
63 0.0
64 -0.000553361675185
65 0.0
66 0.0
67 0.0
68 0.0
69 0.0
70 -0.002536341769153
71 0.0
72 0.000005135285904
73 0.0
74 0.0
75 0.000002296569673
76 0.0
77 0.0
78 -0.000009186278693
79 0.0
80 0.0
81 0.0
82 -0.000011891455654
83 0.0
84 0.0
85 -0.000005318020639
86 0.0
87 0.0
88 0.000021272082555
89 0.0
90 0.0
 Sym=     21.1
 Ene=       0.0170
 Spin= Alpha
 Occup=   -0.000000
1 0.0
2 0.0
3 0.0
4 0.0
5 0.52596934375392
6 0.0
7 0.0
8 -0.19951236547875
9 0.0
10 0.0
11 0.69373671728348
12 0.0
13 0.0
14 0.0
15 0.0
16 0.0
17 0.0
18 0.005159264012083
19 0.0
20 0.0
21 0.0
22 0.0
23 0.0
24 -0.023821121635555
25 0.0
26 0.000970396347613
27 0.0
28 0.0
29 0.000433974439676
30 0.0
31 0.0
32 -0.001735897758705
33 0.0
34 0.0
35 0.0
36 0.0
37 0.0
38 0.0
39 0.0
40 0.0
41 -0.008121133832220
42 0.0
43 0.0
44 0.002070812548882
45 0.0
46 0.0
47 0.031070348991988
48 0.0
49 0.0
50 -0.067802893742072
51 0.0
52 0.0
53 0.0
54 0.0
55 0.0
56 0.0
57 0.000270004727008
58 0.0
59 0.0
60 0.0
61 0.0
62 0.0
63 0.000553285397813
64 0.0
65 0.0
66 0.0
67 0.0
68 0.0
69 0.002536250723437
70 0.0
71 -0.000005135434816
72 0.0
73 0.0
74 -0.000002296636269
75 0.0
76 0.0
77 0.000009186545075
78 0.0
79 0.0
80 0.0
81 0.000011891518652
82 0.0
83 0.0
84 0.000005318048812
85 0.0
86 0.0
87 -0.000021272195250
88 0.0
89 0.0
90 0.0
 Sym=     22.1
 Ene=       0.0283
 Spin= Alpha
 Occup=   -0.000000
1 0.017211723474423
2 0.20345446215138
3 0.097496432478538
4 -0.29135172359724
5 0.0
6 0.0
7 0.58025619495447
8 0.0
9 0.0
10 -0.18439487618573
11 0.0
12 0.0
13 0.65322941024245
14 -0.009050424971387
15 -0.009050424971387
16 0.018100849942773
17 0.0
18 0.0
19 0.0
20 0.038828342354799
21 0.038828342354799
22 -0.077656684709598
23 0.0
24 0.0
25 0.0
26 0.0
27 0.0
28 -0.006919075087445
29 0.0
30 0.0
31 0.004641456671085
32 0.0
33 0.0
34 0.004641456671085
35 0.0
36 -0.001262039898369
37 0.002469453942960
38 0.002233737068153
39 0.030296660811019
40 -0.12210013026654
41 0.0
42 0.0
43 0.025618837588096
44 0.0
45 0.0
46 -0.003493970347624
47 0.0
48 0.0
49 -0.10995887527591
50 0.0
51 0.0
52 0.24889627924255
53 0.000240454983599
54 0.000240454983599
55 -0.000480909967199
56 0.0
57 0.0
58 0.0
59 0.000074372322967
60 0.000074372322967
61 -0.000148744645935
62 0.0
63 0.0
64 0.0
65 0.003208333728709
66 0.003208333728709
67 -0.006416667457418
68 0.0
69 0.0
70 0.0
71 0.0
72 0.0
73 -0.000015938660563
74 0.0
75 0.0
76 0.000010691978546
77 0.0
78 0.0
79 0.000010691978546
80 0.0
81 0.0
82 0.0
83 0.000065286025636
84 0.0
85 0.0
86 -0.000043795197391
87 0.0
88 0.0
89 -0.000043795197391
90 0.0
 Sym=     23.1
 Ene=       0.1019
 Spin= Alpha
 Occup=   -0.000000
1 0.0
2 0.0
3 0.0
4 0.0
5 0.0
6 0.54145200190436
7 0.0
8 0.0
9 1.05415875284683
10 0.0
11 0.0
12 -1.38383289688574
13 0.0
14 0.0
15 0.0
16 0.0
17 0.0
18 0.0
19 -0.002464637431331
20 0.0
21 0.0
22 0.0
23 0.0
24 0.0
25 -0.006201000066683
26 0.0
27 0.000232660254962
28 0.0
29 0.0
30 0.000104048829151
31 0.0
32 0.0
33 -0.000416195316605
34 0.0
35 0.0
36 0.0
37 0.0
38 0.0
39 0.0
40 0.0
41 0.0
42 0.006562136619080
43 0.0
44 0.0
45 -0.001430527649978
46 0.0
47 0.0
48 -0.027473868640297
49 0.0
50 0.0
51 0.066405576970084
52 0.0
53 0.0
54 0.0
55 0.0
56 0.0
57 0.0