[Molden Format]
[N_Atoms]
                    15
[Atoms] (AU)
C1          1      6          -0.05991400     -0.02336800      0.00226300
C2          2      6           2.51236500     -0.02357000      0.00234600
C3          3      6          -0.05990000     -0.02368600     -1.35146900
C4          4      6           2.51241600     -0.02402300     -1.35138100
C5          5      6           1.22622300      0.78140000      0.48211400
C6          6      6           1.22638800      0.78077200     -1.83162300
C7          7      6           1.22634200      1.91062200     -0.67504400
H8          8      1          -0.77270000     -0.49381900      0.68009500
H9          9      1           3.22516500     -0.49383400      0.68027900
H10        10      1          -0.77278800     -0.49419900     -2.02913900
H11        11      1           3.22512200     -0.49495600     -2.02896700
H12        12      1           1.22625400      1.11120600      1.52814000
H13        13      1           1.22643200      1.11002200     -2.87782100
H14        14      1           0.31280600      2.53132000     -0.67518000
H15        15      1           2.13998800      2.53117500     -0.67522000
[5D]
[Charge] (Mulliken)
 -0.373741882057263     
 -0.371915935823021     
 -0.369864680806116     
 -0.372081420854283     
  -1.11720811740507     
  -1.11698932021276     
  -1.16713165241558     
  0.551010008496349     
  0.552072518175620     
  0.549773528671557     
  0.552061519629992     
  0.735436524479495     
  0.735202582200386     
  0.606831174520242     
  0.606545153399991     
[GTO] (AU)
   1
   s  14
  0.505575010E+05  0.552699996E-04
  0.752478560E+04  0.434329997E-03
  0.169432760E+04  0.231587998E-02
  0.472822790E+03  0.987291993E-02
  0.151710750E+03  0.352194897E-01
  0.539187460E+02  0.104193749E+00
  0.206593110E+02  0.241274108E+00
  0.838397600E+01  0.384017407E+00
  0.357701500E+01  0.308237138E+00
  0.154711800E+01  0.683055395E-01
  0.613013000E+00  0.778209994E-03
  0.246068000E+00  0.990489993E-03
  0.990870000E-01 -0.892999994E-04
  0.346800000E-01  0.471399997E-04
   s  14
  0.505575010E+05 -0.120000000E-04
  0.752478560E+04 -0.940000001E-04
  0.169432760E+04 -0.502800001E-03
  0.472822790E+03 -0.214760000E-02
  0.151710750E+03 -0.779420001E-02
  0.539187460E+02 -0.237634000E-01
  0.206593110E+02 -0.600235001E-01
  0.838397600E+01 -0.115398500E+00
  0.357701500E+01 -0.153900900E+00
  0.154711800E+01 -0.145946000E-01
  0.613013000E+00  0.389584921E+00
  0.246068000E+00  0.539729071E+00
  0.990870000E-01  0.188406010E+00
  0.346800000E-01  0.258575300E-01
   p   9
  0.833331550E+02  0.122406000E-02
  0.195576110E+02  0.943894001E-02
  0.608036500E+01  0.417744100E-01
  0.217931700E+01  0.131833040E+00
  0.865150000E+00  0.278911880E+00
  0.361944000E+00  0.366866330E+00
  0.154740000E+00  0.279059130E+00
  0.654290000E-01  0.138048070E+00
  0.229000000E-01  0.341949500E-01
 
   2
   s  14
  0.505575010E+05  0.552699996E-04
  0.752478560E+04  0.434329997E-03
  0.169432760E+04  0.231587998E-02
  0.472822790E+03  0.987291993E-02
  0.151710750E+03  0.352194897E-01
  0.539187460E+02  0.104193749E+00
  0.206593110E+02  0.241274108E+00
  0.838397600E+01  0.384017407E+00
  0.357701500E+01  0.308237138E+00
  0.154711800E+01  0.683055395E-01
  0.613013000E+00  0.778209994E-03
  0.246068000E+00  0.990489993E-03
  0.990870000E-01 -0.892999994E-04
  0.346800000E-01  0.471399997E-04
   s  14
  0.505575010E+05 -0.120000000E-04
  0.752478560E+04 -0.940000001E-04
  0.169432760E+04 -0.502800001E-03
  0.472822790E+03 -0.214760000E-02
  0.151710750E+03 -0.779420001E-02
  0.539187460E+02 -0.237634000E-01
  0.206593110E+02 -0.600235001E-01
  0.838397600E+01 -0.115398500E+00
  0.357701500E+01 -0.153900900E+00
  0.154711800E+01 -0.145946000E-01
  0.613013000E+00  0.389584921E+00
  0.246068000E+00  0.539729071E+00
  0.990870000E-01  0.188406010E+00
  0.346800000E-01  0.258575300E-01
   p   9
  0.833331550E+02  0.122406000E-02
  0.195576110E+02  0.943894001E-02
  0.608036500E+01  0.417744100E-01
  0.217931700E+01  0.131833040E+00
  0.865150000E+00  0.278911880E+00
  0.361944000E+00  0.366866330E+00
  0.154740000E+00  0.279059130E+00
  0.654290000E-01  0.138048070E+00
  0.229000000E-01  0.341949500E-01
 
   3
   s  14
  0.505575010E+05  0.552699996E-04
  0.752478560E+04  0.434329997E-03
  0.169432760E+04  0.231587998E-02
  0.472822790E+03  0.987291993E-02
  0.151710750E+03  0.352194897E-01
  0.539187460E+02  0.104193749E+00
  0.206593110E+02  0.241274108E+00
  0.838397600E+01  0.384017407E+00
  0.357701500E+01  0.308237138E+00
  0.154711800E+01  0.683055395E-01
  0.613013000E+00  0.778209994E-03
  0.246068000E+00  0.990489993E-03
  0.990870000E-01 -0.892999994E-04
  0.346800000E-01  0.471399997E-04
   s  14
  0.505575010E+05 -0.120000000E-04
  0.752478560E+04 -0.940000001E-04
  0.169432760E+04 -0.502800001E-03
  0.472822790E+03 -0.214760000E-02
  0.151710750E+03 -0.779420001E-02
  0.539187460E+02 -0.237634000E-01
  0.206593110E+02 -0.600235001E-01
  0.838397600E+01 -0.115398500E+00
  0.357701500E+01 -0.153900900E+00
  0.154711800E+01 -0.145946000E-01
  0.613013000E+00  0.389584921E+00
  0.246068000E+00  0.539729071E+00
  0.990870000E-01  0.188406010E+00
  0.346800000E-01  0.258575300E-01
   p   9
  0.833331550E+02  0.122406000E-02
  0.195576110E+02  0.943894001E-02
  0.608036500E+01  0.417744100E-01
  0.217931700E+01  0.131833040E+00
  0.865150000E+00  0.278911880E+00
  0.361944000E+00  0.366866330E+00
  0.154740000E+00  0.279059130E+00
  0.654290000E-01  0.138048070E+00
  0.229000000E-01  0.341949500E-01
 
   4
   s  14
  0.505575010E+05  0.552699996E-04
  0.752478560E+04  0.434329997E-03
  0.169432760E+04  0.231587998E-02
  0.472822790E+03  0.987291993E-02
  0.151710750E+03  0.352194897E-01
  0.539187460E+02  0.104193749E+00
  0.206593110E+02  0.241274108E+00
  0.838397600E+01  0.384017407E+00
  0.357701500E+01  0.308237138E+00
  0.154711800E+01  0.683055395E-01
  0.613013000E+00  0.778209994E-03
  0.246068000E+00  0.990489993E-03
  0.990870000E-01 -0.892999994E-04
  0.346800000E-01  0.471399997E-04
   s  14
  0.505575010E+05 -0.120000000E-04
  0.752478560E+04 -0.940000001E-04
  0.169432760E+04 -0.502800001E-03
  0.472822790E+03 -0.214760000E-02
  0.151710750E+03 -0.779420001E-02
  0.539187460E+02 -0.237634000E-01
  0.206593110E+02 -0.600235001E-01
  0.838397600E+01 -0.115398500E+00
  0.357701500E+01 -0.153900900E+00
  0.154711800E+01 -0.145946000E-01
  0.613013000E+00  0.389584921E+00
  0.246068000E+00  0.539729071E+00
  0.990870000E-01  0.188406010E+00
  0.346800000E-01  0.258575300E-01
   p   9
  0.833331550E+02  0.122406000E-02
  0.195576110E+02  0.943894001E-02
  0.608036500E+01  0.417744100E-01
  0.217931700E+01  0.131833040E+00
  0.865150000E+00  0.278911880E+00
  0.361944000E+00  0.366866330E+00
  0.154740000E+00  0.279059130E+00
  0.654290000E-01  0.138048070E+00
  0.229000000E-01  0.341949500E-01
 
   5
   s  14
  0.505575010E+05  0.552699996E-04
  0.752478560E+04  0.434329997E-03
  0.169432760E+04  0.231587998E-02
  0.472822790E+03  0.987291993E-02
  0.151710750E+03  0.352194897E-01
  0.539187460E+02  0.104193749E+00
  0.206593110E+02  0.241274108E+00
  0.838397600E+01  0.384017407E+00
  0.357701500E+01  0.308237138E+00
  0.154711800E+01  0.683055395E-01
  0.613013000E+00  0.778209994E-03
  0.246068000E+00  0.990489993E-03
  0.990870000E-01 -0.892999994E-04
  0.346800000E-01  0.471399997E-04
   s  14
  0.505575010E+05 -0.120000000E-04
  0.752478560E+04 -0.940000001E-04
  0.169432760E+04 -0.502800001E-03
  0.472822790E+03 -0.214760000E-02
  0.151710750E+03 -0.779420001E-02
  0.539187460E+02 -0.237634000E-01
  0.206593110E+02 -0.600235001E-01
  0.838397600E+01 -0.115398500E+00
  0.357701500E+01 -0.153900900E+00
  0.154711800E+01 -0.145946000E-01
  0.613013000E+00  0.389584921E+00
  0.246068000E+00  0.539729071E+00
  0.990870000E-01  0.188406010E+00
  0.346800000E-01  0.258575300E-01
   p   9
  0.833331550E+02  0.122406000E-02
  0.195576110E+02  0.943894001E-02
  0.608036500E+01  0.417744100E-01
  0.217931700E+01  0.131833040E+00
  0.865150000E+00  0.278911880E+00
  0.361944000E+00  0.366866330E+00
  0.154740000E+00  0.279059130E+00
  0.654290000E-01  0.138048070E+00
  0.229000000E-01  0.341949500E-01
 
   6
   s  14
  0.505575010E+05  0.552699996E-04
  0.752478560E+04  0.434329997E-03
  0.169432760E+04  0.231587998E-02
  0.472822790E+03  0.987291993E-02
  0.151710750E+03  0.352194897E-01
  0.539187460E+02  0.104193749E+00
  0.206593110E+02  0.241274108E+00
  0.838397600E+01  0.384017407E+00
  0.357701500E+01  0.308237138E+00
  0.154711800E+01  0.683055395E-01
  0.613013000E+00  0.778209994E-03
  0.246068000E+00  0.990489993E-03
  0.990870000E-01 -0.892999994E-04
  0.346800000E-01  0.471399997E-04
   s  14
  0.505575010E+05 -0.120000000E-04
  0.752478560E+04 -0.940000001E-04
  0.169432760E+04 -0.502800001E-03
  0.472822790E+03 -0.214760000E-02
  0.151710750E+03 -0.779420001E-02
  0.539187460E+02 -0.237634000E-01
  0.206593110E+02 -0.600235001E-01
  0.838397600E+01 -0.115398500E+00
  0.357701500E+01 -0.153900900E+00
  0.154711800E+01 -0.145946000E-01
  0.613013000E+00  0.389584921E+00
  0.246068000E+00  0.539729071E+00
  0.990870000E-01  0.188406010E+00
  0.346800000E-01  0.258575300E-01
   p   9
  0.833331550E+02  0.122406000E-02
  0.195576110E+02  0.943894001E-02
  0.608036500E+01  0.417744100E-01
  0.217931700E+01  0.131833040E+00
  0.865150000E+00  0.278911880E+00
  0.361944000E+00  0.366866330E+00
  0.154740000E+00  0.279059130E+00
  0.654290000E-01  0.138048070E+00
  0.229000000E-01  0.341949500E-01
 
   7
   s  14
  0.505575010E+05  0.552699996E-04
  0.752478560E+04  0.434329997E-03
  0.169432760E+04  0.231587998E-02
  0.472822790E+03  0.987291993E-02
  0.151710750E+03  0.352194897E-01
  0.539187460E+02  0.104193749E+00
  0.206593110E+02  0.241274108E+00
  0.838397600E+01  0.384017407E+00
  0.357701500E+01  0.308237138E+00
  0.154711800E+01  0.683055395E-01
  0.613013000E+00  0.778209994E-03
  0.246068000E+00  0.990489993E-03
  0.990870000E-01 -0.892999994E-04
  0.346800000E-01  0.471399997E-04
   s  14
  0.505575010E+05 -0.120000000E-04
  0.752478560E+04 -0.940000001E-04
  0.169432760E+04 -0.502800001E-03
  0.472822790E+03 -0.214760000E-02
  0.151710750E+03 -0.779420001E-02
  0.539187460E+02 -0.237634000E-01
  0.206593110E+02 -0.600235001E-01
  0.838397600E+01 -0.115398500E+00
  0.357701500E+01 -0.153900900E+00
  0.154711800E+01 -0.145946000E-01
  0.613013000E+00  0.389584921E+00
  0.246068000E+00  0.539729071E+00
  0.990870000E-01  0.188406010E+00
  0.346800000E-01  0.258575300E-01
   p   9
  0.833331550E+02  0.122406000E-02
  0.195576110E+02  0.943894001E-02
  0.608036500E+01  0.417744100E-01
  0.217931700E+01  0.131833040E+00
  0.865150000E+00  0.278911880E+00
  0.361944000E+00  0.366866330E+00
  0.154740000E+00  0.279059130E+00
  0.654290000E-01  0.138048070E+00
  0.229000000E-01  0.341949500E-01
 
   8
   s   8
  0.188614450E+03  0.963850003E-03
  0.282765960E+02  0.749196002E-02
  0.642483000E+01  0.375954101E-01
  0.181504100E+01  0.143394980E+00
  0.591063000E+00  0.348636301E+00
  0.212149000E+00  0.438297361E+00
  0.798910000E-01  0.165106610E+00
  0.279620000E-01  0.210228701E-01
 
   9
   s   8
  0.188614450E+03  0.963850003E-03
  0.282765960E+02  0.749196002E-02
  0.642483000E+01  0.375954101E-01
  0.181504100E+01  0.143394980E+00
  0.591063000E+00  0.348636301E+00
  0.212149000E+00  0.438297361E+00
  0.798910000E-01  0.165106610E+00
  0.279620000E-01  0.210228701E-01
 
  10
   s   8
  0.188614450E+03  0.963850003E-03
  0.282765960E+02  0.749196002E-02
  0.642483000E+01  0.375954101E-01
  0.181504100E+01  0.143394980E+00
  0.591063000E+00  0.348636301E+00
  0.212149000E+00  0.438297361E+00
  0.798910000E-01  0.165106610E+00
  0.279620000E-01  0.210228701E-01
 
  11
   s   8
  0.188614450E+03  0.963850003E-03
  0.282765960E+02  0.749196002E-02
  0.642483000E+01  0.375954101E-01
  0.181504100E+01  0.143394980E+00
  0.591063000E+00  0.348636301E+00
  0.212149000E+00  0.438297361E+00
  0.798910000E-01  0.165106610E+00
  0.279620000E-01  0.210228701E-01
 
  12
   s   8
  0.188614450E+03  0.963850003E-03
  0.282765960E+02  0.749196002E-02
  0.642483000E+01  0.375954101E-01
  0.181504100E+01  0.143394980E+00
  0.591063000E+00  0.348636301E+00
  0.212149000E+00  0.438297361E+00
  0.798910000E-01  0.165106610E+00
  0.279620000E-01  0.210228701E-01
 
  13
   s   8
  0.188614450E+03  0.963850003E-03
  0.282765960E+02  0.749196002E-02
  0.642483000E+01  0.375954101E-01
  0.181504100E+01  0.143394980E+00
  0.591063000E+00  0.348636301E+00
  0.212149000E+00  0.438297361E+00
  0.798910000E-01  0.165106610E+00
  0.279620000E-01  0.210228701E-01
 
  14
   s   8
  0.188614450E+03  0.963850003E-03
  0.282765960E+02  0.749196002E-02
  0.642483000E+01  0.375954101E-01
  0.181504100E+01  0.143394980E+00
  0.591063000E+00  0.348636301E+00
  0.212149000E+00  0.438297361E+00
  0.798910000E-01  0.165106610E+00
  0.279620000E-01  0.210228701E-01
 
  15
   s   8
  0.188614450E+03  0.963850003E-03
  0.282765960E+02  0.749196002E-02
  0.642483000E+01  0.375954101E-01
  0.181504100E+01  0.143394980E+00
  0.591063000E+00  0.348636301E+00
  0.212149000E+00  0.438297361E+00
  0.798910000E-01  0.165106610E+00
  0.279620000E-01  0.210228701E-01
 
[MO]
Sym=     1a  
Ene=   -12.2360
Spin= Alpha
Occup=    2.00000
   1         0.46468188
   2        -0.01271021
   3         0.00578492
   4         0.00554294
   5        -0.01607850
   6         0.45911405
   7        -0.01275541
   8        -0.00460504
   9         0.00487182
  10        -0.02062274
  11         0.45982540
  12        -0.01580392
  13         0.00832540
  14         0.00713163
  15         0.01753035
  16         0.45716178
  17        -0.01344653
  18        -0.00622018
  19         0.00547638
  20         0.02076362
  21         0.21542412
  22         0.01161678
  23        -0.00196696
  24        -0.00344999
  25         0.00192359
  26         0.21626071
  27         0.01171766
  28        -0.00182558
  29        -0.00421479
  30        -0.00291465
  31         0.08413597
  32        -0.00751864
  33         0.00094667
  34         0.00445059
  35         0.00008375
  36         0.01511558
  37         0.01434391
  38         0.01261758
  39         0.01341326
  40        -0.00055230
  41         0.00048285
  42        -0.00485213
  43        -0.00369974
Sym=     2a  
Ene=   -12.2210
Spin= Alpha
Occup=    2.00000
   1        -0.49225586
   2         0.00675765
   3        -0.00938202
   4        -0.00423589
   5         0.01833205
   6         0.48824719
   7        -0.00564736
   8        -0.00973666
   9         0.00463066
  10        -0.02830765
  11        -0.48522390
  12         0.01015700
  13        -0.01194488
  14        -0.00587564
  15        -0.01989656
  16         0.48896521
  17        -0.00550030
  18        -0.00810523
  19         0.00413264
  20         0.02838502
  21         0.00532315
  22        -0.00153545
  23         0.00421384
  24         0.00151120
  25         0.00362277
  26         0.00626582
  27        -0.00146250
  28         0.00380665
  29         0.00241771
  30        -0.00278504
  31         0.00304600
  32         0.00066240
  33        -0.00960770
  34        -0.00015987
  35        -0.00007163
  36        -0.01740104
  37         0.01521610
  38        -0.01471147
  39         0.01586926
  40         0.00152643
  41         0.00059987
  42        -0.00478727
  43         0.00286471
Sym=     3a  
Ene=   -12.1220
Spin= Alpha
Occup=    2.00000
   1        -0.14230605
   2        -0.00724440
   3        -0.00463377
   4        -0.00361002
   5         0.00716279
   6        -0.14624921
   7        -0.00695567
   8         0.00396136
   9        -0.00300858
  10         0.01317985
  11        -0.12487317
  12        -0.00650431
  13        -0.00558772
  14        -0.00418761
  15        -0.00790018
  16        -0.13260731
  17        -0.00732340
  18         0.00410613
  19        -0.00280374
  20        -0.01321374
  21         0.41651090
  22         0.01308841
  23         0.00178182
  24        -0.00309133
  25        -0.01893296
  26         0.44278574
  27         0.01410285
  28         0.00206644
  29        -0.00320718
  30         0.02053603
  31         0.73575435
  32        -0.00053755
  33        -0.00105077
  34        -0.01274411
  35        -0.00001108
  36        -0.00525017
  37        -0.00511408
  38        -0.00362496
  39        -0.00441369
  40         0.00722367
  41         0.00736377
  42         0.00643572
  43         0.00524918
Sym=     4a  
Ene=   -12.1190
Spin= Alpha
Occup=    2.00000
   1        -0.24681384
   2         0.01597820
   3        -0.00632332
   4        -0.00556901
   5        -0.00262555
   6        -0.26258400
   7         0.01594291
   8         0.00700864
   9        -0.00581255
  10        -0.00092621
  11         0.25601039
  12        -0.01873426
  13         0.00819367
  14         0.00689885
  15         0.00166859
  16         0.26781430
  17        -0.01545740
  18        -0.00737035
  19         0.00612452
  20        -0.00097189
  21        -0.60912701
  22        -0.02350006
  23        -0.00040555
  24         0.00785073
  25         0.02540287
  26         0.59014762
  27         0.02274565
  28         0.00033023
  29        -0.00810606
  30         0.02394750
  31        -0.01850114
  32        -0.00035149
  33        -0.00022322
  34         0.00049944
  35         0.00020761
  36        -0.00669642
  37        -0.00774020
  38         0.00690416
  39         0.00790118
  40        -0.01313271
  41         0.01377994
  42        -0.00025310
  43         0.00002238
Sym=     5a  
Ene=   -12.0540
Spin= Alpha
Occup=    2.00000
   1        -0.49126058
   2        -0.00963133
   3        -0.01218051
   4        -0.00670779
   5         0.00381354
   6         0.51518547
   7         0.00953650
   8        -0.01380163
   9         0.00767701
  10        -0.00674200
  11         0.48256150
  12         0.00197969
  13         0.01560368
  14         0.00902540
  15         0.01233838
  16        -0.52905013
  17        -0.00988205
  18         0.01370318
  19        -0.00770411
  20        -0.00945783
  21         0.00905809
  22         0.00147989
  23         0.00651555
  24        -0.00125912
  25         0.00024538
  26         0.06247206
  27         0.00188898
  28        -0.00639146
  29         0.00016303
  30         0.00122522
  31        -0.04831327
  32        -0.00283080
  33        -0.00062575
  34         0.00137024
  35        -0.00070556
  36        -0.00544847
  37         0.00653832
  38         0.00520299
  39        -0.00692192
  40         0.00097190
  41         0.00197216
  42        -0.00042392
  43         0.00023058
Sym=     6a  
Ene=   -12.0520
Spin= Alpha
Occup=    2.00000
   1        -0.06019211
   2        -0.00537423
   3        -0.00174280
   4        -0.00044904
   5         0.00296952
   6        -0.13319161
   7        -0.00647239
   8         0.00305126
   9        -0.00101416
  10         0.00940555
  11        -0.11827511
  12        -0.00472663
  13        -0.00475168
  14        -0.00231074
  15        -0.00464708
  16        -0.05156670
  17        -0.00459392
  18         0.00112519
  19         0.00026205
  20        -0.00808410
  21         0.52927740
  22         0.02741446
  23         0.00111138
  24        -0.00297940
  25        -0.01643698
  26         0.51532570
  27         0.02702188
  28         0.00252077
  29        -0.00295630
  30         0.01641673
  31        -0.67059414
  32        -0.03024218
  33        -0.00096942
  34         0.01406260
  35         0.00005686
  36        -0.00158445
  37        -0.00220394
  38        -0.00121672
  39        -0.00105490
  40         0.00519982
  41         0.00464935
  42        -0.00169084
  43        -0.00281251
Sym=     7a  
Ene=   -12.0270
Spin= Alpha
Occup=    2.00000
   1        -0.45316605
   2        -0.01015833
   3        -0.00626495
   4        -0.00312952
   5         0.00107003
   6        -0.40506150
   7        -0.00781224
   8         0.01199692
   9        -0.00769362
  10         0.00516052
  11         0.46124737
  12         0.00221289
  13         0.01080380
  14         0.00638348
  15         0.01179696
  16         0.40800902
  17         0.00847709
  18        -0.01246010
  19         0.00807540
  20         0.00695068
  21         0.37323020
  22         0.01348432
  23        -0.00526731
  24         0.00192763
  25        -0.01004085
  26        -0.38728605
  27        -0.01520172
  28         0.00452474
  29        -0.00241825
  30        -0.01309867
  31         0.00528237
  32        -0.00047433
  33        -0.00042591
  34         0.00036088
  35         0.00074316
  36        -0.00188372
  37        -0.00041758
  38         0.00166602
  39         0.00041201
  40         0.00382142
  41        -0.00083799
  42        -0.00047762
  43         0.00038370
Sym=     8a  
Ene=    -2.9707
Spin= Alpha
Occup=    2.00000
   1        -0.18919818
   2        -0.20278120
   3         0.14312123
   4         0.09742136
   5        -0.13512797
   6        -0.19028073
   7        -0.20335276
   8        -0.13969425
   9         0.09583961
  10        -0.14055457
  11        -0.18964027
  12        -0.19373926
  13         0.13576698
  14         0.09169760
  15         0.13021124
  16        -0.19030216
  17        -0.20311220
  18        -0.14157779
  19         0.09867537
  20         0.14248425
  21        -0.14952462
  22         0.19171749
  23        -0.00326582
  24        -0.10985098
  25        -0.40579942
  26        -0.14938399
  27         0.19398223
  28         0.00064436
  29        -0.11040632
  30         0.40767196
  31        -0.19462397
  32        -0.06793139
  33         0.00120911
  34        -0.15603914
  35         0.00045787
  36         0.14676702
  37         0.15124152
  38         0.15410304
  39         0.15037507
  40         0.15642096
  41         0.15499114
  42        -0.03412500
  43        -0.03496239
Sym=     9a  
Ene=    -2.0495
Spin= Alpha
Occup=    2.00000
   1         0.15796288
   2        -0.10738393
   3        -0.31256089
   4        -0.12610549
   5         0.30522188
   6        -0.15546714
   7         0.10125380
   8        -0.32804026
   9         0.12884088
  10        -0.28042276
  11         0.15707262
  12        -0.09103386
  13        -0.31788381
  14        -0.12724161
  15        -0.31030166
  16        -0.15503773
  17         0.10553710
  18        -0.30856139
  19         0.11755943
  20         0.27639020
  21         0.00001268
  22         0.00709267
  23         0.33212710
  24        -0.00753155
  25        -0.00256834
  26         0.00148360
  27         0.00951486
  28         0.31586574
  29        -0.00143570
  30         0.00861068
  31        -0.00124572
  32        -0.00741195
  33         0.33286944
  34         0.00476219
  35        -0.00126615
  36        -0.17603801
  37         0.16796559
  38        -0.16660422
  39         0.17741597
  40        -0.00174422
  41        -0.00747528
  42         0.19331901
  43        -0.19012545
Sym=    10a  
Ene=    -1.7728
Spin= Alpha
Occup=    2.00000
   1         0.07708768
   2        -0.15141152
   3        -0.15088897
   4        -0.15264553
   5         0.15557124
   6         0.07393223
   7        -0.15343577
   8         0.13331645
   9        -0.14796780
  10         0.15088466
  11         0.06338581
  12        -0.09191009
  13        -0.11011394
  14        -0.12929831
  15        -0.16157237
  16         0.06161998
  17        -0.10824094
  18         0.10199050
  19        -0.13056818
  20        -0.15282287
  21        -0.03847170
  22        -0.07330518
  23         0.01272919
  24         0.40848277
  25        -0.00325980
  26        -0.04961409
  27         0.08893179
  28        -0.00039577
  29         0.37500809
  30         0.07120171
  31        -0.00805164
  32         0.98608007
  33         0.00646972
  34        -0.49614310
  35        -0.01976798
  36        -0.08459869
  37        -0.08157087
  38        -0.06119821
  39        -0.06132637
  40        -0.02539808
  41        -0.02406435
  42         0.01390384
  43         0.01000304
Sym=    11a  
Ene=    -1.7455
Spin= Alpha
Occup=    2.00000
   1         0.04134900
   2        -0.19680859
   3        -0.18176379
   4        -0.10523809
   5        -0.04505849
   6         0.04724386
   7        -0.17974363
   8         0.14010924
   9        -0.06058890
  10        -0.03976359
  11        -0.06838081
  12         0.09545498
  13         0.28202172
  14         0.18403088
  15         0.09405566
  16        -0.06314983
  17         0.19124964
  18        -0.17145168
  19         0.09905334
  20         0.00917266
  21         0.05324139
  22        -0.73327779
  23         0.03337564
  24         0.06984311
  25         0.26382252
  26        -0.04745205
  27         0.67756371
  28        -0.05506830
  29        -0.17562243
  30         0.29496018
  31        -0.00250098
  32        -0.14095540
  33        -0.01527222
  34         0.04879768
  35        -0.20057756
  36        -0.01505436
  37        -0.06376942
  38         0.04284424
  39         0.09250457
  40        -0.00302987
  41         0.04973014
  42        -0.00513637
  43         0.00822999
Sym=    12a  
Ene=    -1.5178
Spin= Alpha
Occup=    2.00000
   1         0.01098392
   2         0.28394757
   3        -0.08147926
   4        -0.05899931
   5         0.11697813
   6         0.02542939
   7         0.33874556
   8         0.18180991
   9        -0.10421312
  10         0.12350451
  11         0.01059193
  12         0.10621593
  13         0.00172100
  14         0.00710218
  15        -0.02966382
  16         0.00699499
  17         0.41507600
  18         0.11448708
  19        -0.07624008
  20        -0.15716467
  21         0.03051217
  22         0.27176355
  23        -0.08797979
  24        -0.01436713
  25         0.44963447
  26         0.02061352
  27         0.41657163
  28         0.00176036
  29         0.01749465
  30        -0.39547625
  31         0.04693395
  32         0.20292083
  33        -0.06283376
  34         0.25223870
  35        -0.05234890
  36        -0.05022416
  37        -0.10896030
  38        -0.15345419
  39        -0.08074139
  40        -0.12810981
  41        -0.10458850
  42        -0.04316093
  43        -0.00765108
Sym=    13a  
Ene=    -1.3750
Spin= Alpha
Occup=    2.00000
   1        -0.06018628
   2         0.52072405
   3        -0.06431979
   4        -0.05704833
   5        -0.27086041
   6         0.02102843
   7        -0.18443764
   8        -0.00764064
   9        -0.02278964
  10        -0.08760091
  11        -0.03247906
  12         0.07812648
  13        -0.32827662
  14        -0.17594491
  15         0.40282535
  16        -0.01204270
  17         0.07420325
  18        -0.05813752
  19         0.04329966
  20        -0.00600258
  21        -0.01744162
  22        -0.30177832
  23        -0.11011886
  24        -0.07512849
  25         0.08825885
  26         0.01171128
  27        -0.11286031
  28         0.42292690
  29         0.28582580
  30         0.00119538
  31         0.02871694
  32         0.14114458
  33         0.18660793
  34        -0.00765497
  35        -0.15122838
  36         0.08255293
  37        -0.06731152
  38        -0.01708674
  39         0.05514728
  40         0.00574763
  41        -0.02348813
  42         0.01295299
  43        -0.03603190
Sym=    14a  
Ene=    -1.3462
Spin= Alpha
Occup=    2.00000
   1        -0.02192903
   2        -0.03487860
   3        -0.07343774
   4         0.00674603
   5        -0.07267984
   6         0.00932978
   7        -0.28953143
   8         0.14615566
   9        -0.03278461
  10        -0.10711275
  11         0.00451755
  12         0.05817740
  13         0.03659313
  14        -0.01040380
  15         0.07981710
  16        -0.01033044
  17         0.38423727
  18        -0.10028460
  19         0.00449438
  20        -0.10811096
  21         0.03372999
  22         0.19735742
  23        -0.16005687
  24         0.50266454
  25        -0.07350340
  26        -0.03509501
  27        -0.29116417
  28         0.18332064
  29        -0.46571760
  30        -0.08601504
  31         0.00671033
  32         0.02675682
  33        -0.00968192
  34        -0.00179557
  35         0.40718733
  36         0.02309213
  37        -0.09201985
  38        -0.01614339
  39         0.10131058
  40        -0.01270430
  41         0.00435868
  42        -0.00427264
  43        -0.00211356
Sym=    15a  
Ene=    -1.3327
Spin= Alpha
Occup=    2.00000
   1        -0.03722287
   2        -0.10895875
   3        -0.33537611
   4        -0.18980180
   5        -0.53046058
   6        -0.00096895
   7         0.43192024
   8         0.08287304
   9        -0.03225051
  10         0.15544808
  11        -0.08044784
  12         0.26238307
  13         0.16777762
  14         0.09166730
  15         0.45991177
  16         0.02934691
  17         0.01543898
  18         0.11620170
  19        -0.10792472
  20        -0.02949559
  21         0.02092024
  22        -0.18496502
  23         0.47191577
  24         0.26450673
  25         0.05579163
  26        -0.02309637
  27        -0.23890484
  28        -0.27295333
  29        -0.06041740
  30        -0.08832875
  31         0.03493841
  32         0.17498646
  33        -0.03193854
  34         0.02931485
  35         0.08263429
  36         0.01642568
  37         0.09415125
  38         0.01095127
  39        -0.08777932
  40        -0.05692197
  41         0.01431959
  42        -0.00621886
  43        -0.00435569
Sym=    16a  
Ene=    -1.2578
Spin= Alpha
Occup=    2.00000
   1         0.00623914
   2         0.21977719
   3        -0.34111267
   4        -0.18264891
   5         0.03830783
   6        -0.00192928
   7        -0.23931615
   8        -0.15037712
   9         0.14540307
  10        -0.15491437
  11        -0.02430351
  12         0.27334402