[Molden Format]
[N_Atoms]
                    1
[Atoms] (AU)
NE1         1     10           0.00000000      0.00000000      0.00000000
[Charge] (Mulliken)
  -2.1316282072803006E-014
[GTO] (AU)
   1
   s   6
  0.842585153E+04  0.188434805E-02
  0.126851940E+04  0.143368994E-01
  0.289621414E+03  0.701096233E-01
  0.818590040E+02  0.237373266E+00
  0.262515079E+02  0.473007126E+00
  0.909472051E+01  0.348401241E+00
   s   3
  0.265321310E+02 -0.107118287E+00
  0.610175501E+01 -0.146163821E+00
  0.169627153E+01  0.112777350E+01
   s   1
  0.445818700E+00  0.100000000E+01
   p   3
  0.265321310E+02  0.719095885E-01
  0.610175501E+01  0.349513372E+00
  0.169627153E+01  0.719940512E+00
   p   1
  0.445818700E+00  0.100000000E+01
   d   1
  0.800000000E+00  0.100000000E+01
 
[MO]
Sym=     1a  
Ene=   -32.1950
Spin= Alpha
Occup=    2.00000
   1         1.01869620
   2        -0.06600034
   3        -0.05717493
   4         0.00000000
   5        -0.00000000
   6         0.00000000
   7        -0.00000000
   8         0.00000000
   9         0.00000000
  10        -0.00713809
  11        -0.00769332
  12        -0.00779036
  13         0.00004277
  14         0.00002342
  15         0.00000614
Sym=     2a  
Ene=     0.0000
Spin= Alpha
Occup=    1.99996
   1        -0.09862915
   2         0.58417104
   3         0.44946519
   4         0.00000000
   5         0.00000000
   6        -0.00000000
   7         0.00000000
   8         0.00000000
   9        -0.00000000
  10         0.02544367
  11         0.02847605
  12         0.03030165
  13        -0.00023159
  14        -0.00017069
  15        -0.00009884
Sym=     3a  
Ene=     0.0000
Spin= Alpha
Occup=    1.49998
   1        -0.00000000
   2         0.00000000
   3         0.00000000
   4        -0.04746482
   5         0.69858748
   6         0.02907256
   7        -0.03028387
   8         0.44571814
   9         0.01854910
  10         0.00000000
  11         0.00000000
  12         0.00000000
  13        -0.00000000
  14        -0.00000000
  15         0.00000000
Sym=     4a  
Ene=     0.0000
Spin= Alpha
Occup=    1.99998
   1        -0.00000000
   2         0.00000000
   3         0.00000000
   4        -0.01997136
   5        -0.03043431
   6         0.69870307
   7        -0.01280138
   8        -0.01950800
   9         0.44785969
  10         0.00000000
  11         0.00000000
  12         0.00000000
  13        -0.00000000
  14        -0.00000000
  15        -0.00000000
Sym=     5a  
Ene=     0.0000
Spin= Alpha
Occup=    1.99689
   1        -0.00000000
   2         0.00000000
   3         0.00000000
   4        -0.69309466
   5        -0.04618344
   6        -0.02182272
   7        -0.45264998
   8        -0.03016172
   9        -0.01425210
  10         0.00000000
  11         0.00000000
  12         0.00000000
  13        -0.00000000
  14        -0.00000000
  15         0.00000000
Sym=     6a  
Ene=     0.0000
Spin= Alpha
Occup=    0.50319
   1        -0.00000000
   2         0.00000000
   3         0.00000000
   4        -0.91298504
   5        -0.06083553
   6        -0.02874617
   7         1.05310488
   8         0.07017223
   9         0.03315797
  10         0.00000000
  11         0.00000000
  12        -0.00000000
  13         0.00000000
  14        -0.00000000
  15         0.00000000
Sym=     7a  
Ene=     1.7167
Spin= Alpha
Occup=    0.00000
   1        -0.00000000
   2         0.00000000
   3        -0.00000000
   4         0.02602976
   5         0.03966635
   6        -0.91065706
   7        -0.03020809
   8        -0.04603364
   9         1.05683678
  10         0.00000000
  11        -0.00000000
  12         0.00000000
  13        -0.00000000
  14         0.00000000
  15         0.00000000
Sym=     8a  
Ene=     1.7264
Spin= Alpha
Occup=    0.00000
   1        -0.00000000
   2         0.00000000
   3        -0.00000000
   4        -0.06170197
   5         0.90813013
   6         0.03779262
   7         0.07171422
   8        -1.05549048
   9        -0.04392515
  10         0.00000000
  11         0.00000000
  12         0.00000000
  13        -0.00000000
  14        -0.00000000
  15         0.00000000
Sym=     9a  
Ene=     1.8417
Spin= Alpha
Occup=    0.00000
   1        -0.00482637
   2         2.15179205
   3        -3.32112236
   4         0.00000000
   5        -0.00000000
   6         0.00000000
   7        -0.00000000
   8         0.00000000
   9        -0.00000000
  10         0.65129772
  11         0.61526421
  12         0.65759502
  13         0.00284956
  14        -0.00008635
  15        -0.00205164
Sym=    10a  
Ene=     2.1238
Spin= Alpha
Occup=    0.00000
   1        -0.00109597
   2        -0.06353767
   3         0.10585218
   4        -0.00000000
   5        -0.00000000
   6         0.00000000
   7         0.00000000
   8         0.00000000
   9        -0.00000000
  10         0.17131458
  11        -0.96317588
  12         0.72170578
  13         0.09025299
  14        -0.01434886
  15        -0.08233791
Sym=    11a  
Ene=     2.1245
Spin= Alpha
Occup=    0.00000
   1        -0.00000000
   2        -0.00000000
   3         0.00000000
   4         0.00000000
   5        -0.00000000
   6         0.00000000
   7        -0.00000000
   8         0.00000000
   9        -0.00000000
  10         0.00334861
  11        -0.07510448
  12         0.07175587
  13        -0.02550844
  14        -0.06882177
  15         0.99368624
Sym=    12a  
Ene=     2.1356
Spin= Alpha
Occup=    0.00000
   1        -0.00000000
   2        -0.00000000
   3         0.00000000
   4         0.00000000
   5         0.00000000
   6        -0.00000000
   7        -0.00000000
   8        -0.00000000
   9         0.00000000
  10        -0.11699336
  11         0.11473712
  12         0.00225624
  13         0.98964390
  14         0.03924550
  15         0.03405835
Sym=    13a  
Ene=     2.1429
Spin= Alpha
Occup=    0.00000
   1         0.00000000
   2        -0.00000000
   3         0.00000000
   4        -0.00000000
   5        -0.00000000
   6         0.00000000
   7         0.00000000
   8         0.00000000
   9        -0.00000000
  10        -0.04930728
  11        -0.00500677
  12         0.05431405
  13        -0.04527826
  14         0.99504824
  15         0.06499753
Sym=    14a  
Ene=     2.1450
Spin= Alpha
Occup=    0.00000
   1        -0.00203826
   2        -0.01667812
   3         0.03890883
   4         0.00000000
   5         0.00000000
   6        -0.00000000
   7        -0.00000000
   8        -0.00000000
   9         0.00000000
  10         0.96219021
  11        -0.32225290
  12        -0.67101687
  13         0.09874354
  14         0.05827878
  15         0.02047543
Sym=    15a  
Ene=     5.8057
Spin= Alpha
Occup=    0.00000
   1         0.88115252
   2         4.94027091
   3       -13.61711985
   4         0.00000000
   5         0.00000000
   6        -0.00000000
   7        -0.00000000
   8        -0.00000000
   9         0.00000000
  10         4.67482040
  11         4.67122213
  12         4.67305943
  13         0.00028091
  14         0.00007031
  15        -0.00008445
