   This run of MOLCAS is using the pymolcas driver

                             OPE
                             OPE          NMOL  CASOP  ENMOLC A   SO
                 OPE        NMOLC        AS  OP EN  MO LC     AS  OP
                OPENM       OL CA        SO  PE NM  OL CA     SOP EN
                OP EN      MO   LC       AS  OP ENMOL  CASO   PENMOL
                OP  EN     MO   LC       AS  OP EN     MO     LC ASO
               OP   E  NMOL  C  AS       OP  EN MO     LC     AS  OP
               OP  E   NMO   LC AS        OPEN  MO     LCASOP EN   M
               O  PEN   MO  LCA  SO
            OPE   NMO   L   CAS    OP
        OPENMOL  CASOP     ENMOL   CASOPE
     OPENMOLCA   SOPENMOLCASOPEN   MOLCASOPE
    OPENMOLCAS   OP           EN   MOL    CAS
    OPENMOLCAS       OP  ENM        O     LCA
    OPENMOLCAS    OPEN  MOLCASO     P  E  NMO
    OPENMOLCAS     OP               E  N  MOL
    OPENMOLCA   SO           PENM   O  L  CAS    OPEN    MO    LCAS
    OPENMOLCA   SOP           ENM   O  L  CAS   OP  EN  MOLC  AS   O
    OPENMOLCA   SOPE           NM      O  LCA   S      OP  EN MO
    OPENMOLC                AS         O  PEN   M      OL  CA  SOPE
    OPENMO        LCASOPE  NMOL        C  ASO   P      ENMOLC     AS
    OPE     NMO      LCA  SO     P     E   NM   OL  CA SO  PE N   MO
          OPENMOLCA            SOPE   NMO        LCAS  O    P  ENMO
     OPENMOLCASOPENMOLCASOPENMOLCASOPENMOLCA
        OPENMOLCASOPENMOLCASOPENMOLCASOPE
            OPENMOLCASOPENMOLCASOPENM
               OPENMOLCASOPENMOLCA        version: 21.10
                   OPENMOLCASO
                       OPE                tag: 117-g99df61e

 OpenMolcas is free software; you can redistribute it and/or modify it
 under the terms of the GNU Lesser General Public License version 2.1.
 OpenMolcas is distributed in the hope that it will be useful, but it
 is provided "as is" and without any express or implied warranties.
 For more details see the full text of the license in the file
 LICENSE or in <http://www.gnu.org/licenses/>.

                 Copyright (C) The OpenMolcas Authors
           For the author list and the recommended citation,
                   consult the file CONTRIBUTORS.md

           *************************************************
           * pymolcas version py2.13                       *
           *   build 5e2ba94fe36a8eb84b8d1d4063d9f96a      *
           *   (after the EMIL interpreter by V. Veryazov) *
           *************************************************

configuration info
------------------
Host name: ak-srv1 (Linux)
C Compiler ID: GNU
C flags: -std=gnu99
Fortran Compiler ID: GNU
Fortran flags: -fno-aggressive-loop-optimizations -cpp -fdefault-integer-8 -fmax-stack-var-size=1048576
Definitions: _MOLCAS_;_I8_;_LINUX_
Parallel: OFF (GA=ON)


   -------------------------------------------------------------------------
  |
  |              Project: molcas
  |       Submitted from: /data/scratch/joe/data/Ne/MOLCAS/2andres/smallerAS
  |         Scratch area: /data/scratch/joe/data/Ne/MOLCAS/2andres/smallerAS
  |      Save outputs to: WORKDIR
  |               Molcas: /usr/local/OpenMolcas_MPI
  |
  | Scratch area is NOT empty
  |
  |       MOLCAS_DRIVER = /home/joe/bin/pymolcas
  | MOLCAS_NEW_DEFAULTS = YES
  |  MOLCAS_NEW_WORKDIR = NO
  |       MOLCAS_NPROCS = 1
  |         MOLCAS_SAVE = INCR
  |       MOLCAS_SOURCE = /home/joe/PROGRAMS/OpenMolcas
  |    MOLCAS_STRUCTURE = 0
  |
   -------------------------------------------------------------------------

++ ---------   Input file   ---------

&GATEWAY
coord
1

Ne 0. 0. 0.
Basis
6-31G*
GROUP
NOSYM
NOCD
BSSHow
VERB

&SEWARD

&SCF

&RASSCF
nactel=8
inact=1
RAS2=5
PRWF=-1.
CIROOT= 2 2 1

&CASPT2
XMUL=all
SHIFT=0.0
imag=0.0
ipea=0.0
dens
prop
prwf=-1.0
prsd

-- ----------------------------------

*** symbolic link created: INPORB -> molcas.RasOrb
--- Start Module: gateway at Tue Mar 22 16:03:24 2022 ---

()()()()()()()()()()()()()()()()()()()()()()()()()()()()()()()()()()()()()()()()()()()()()()()()()()

                                              &GATEWAY

                                   only a single process is used
                       available to each process: 4.0 GB of memory, 1 thread?
                                             pid: 10551
()()()()()()()()()()()()()()()()()()()()()()()()()()()()()()()()()()()()()()()()()()()()()()()()()()



 Basis Set     1 Label: NE.6-31G*
 Basis set is read from library:basis_library 
 Basis Set Reference(s):
     Gaussian 09 Revision E.01. M.J. Frisch et al. 2009
     NEON (10s,4p,1d) -> [3s,2p,1d]



++    Symmetry information:
      ---------------------

                    Character Table for C1 

                             E  
                    a        1  x, y, xy, Rz, z, xz, Ry, yz, Rx, I
--


++    Basis set information:
      ----------------------


      Basis set label: NE.6-31G**....

      Electronic valence basis set:
      ------------------
      Associated Effective Charge  10.000000 au
      Associated Actual Charge     10.000000 au
      Nuclear Model: Point charge

      Shell  nPrim  nBasis  Cartesian Spherical Contaminant
         s      10       3        X                  
         p       4       2        X                  
         d       1       1        X                  

       Label   Cartesian Coordinates / Bohr

 NE1                0.0000000000        0.0000000000        0.0000000000
--


++    Molecular structure info:
      -------------------------

                    ************************************************ 
                    **** Cartesian Coordinates / Bohr, Angstrom **** 
                    ************************************************ 

     Center  Label                x              y              z                     x              y              z
        1      NE1              0.000000       0.000000       0.000000              0.000000       0.000000       0.000000
--


++    Isotope specification:
      ----------------------

 Center
 Type   Z    A    mass (Da)
 --------------------------
    1  10   20    19.992440
--


++    Primitive basis info:
      ---------------------


                    *****************************************************
                    ******** Primitive Basis Functions (Valence) ********
                    *****************************************************


 Basis set:NE.6-31G**....                                                                  

                  Type         
                   s
           No.      Exponent    Contraction Coefficients
            1  0.842585153D+04   0.001884   0.000000   0.000000
            2  0.126851940D+04   0.014337   0.000000   0.000000
            3  0.289621414D+03   0.070110   0.000000   0.000000
            4  0.818590040D+02   0.237373   0.000000   0.000000
            5  0.265321310D+02   0.000000  -0.107118   0.000000
            6  0.262515079D+02   0.473007   0.000000   0.000000
            7  0.909472051D+01   0.348401   0.000000   0.000000
            8  0.610175501D+01   0.000000  -0.146164   0.000000
            9  0.169627153D+01   0.000000   1.127774   0.000000
           10  0.445818700D+00   0.000000   0.000000   1.000000

                  Type         
                   p
           No.      Exponent    Contraction Coefficients
           11  0.265321310D+02   0.071910   0.000000
           12  0.610175501D+01   0.349513   0.000000
           13  0.169627153D+01   0.719941   0.000000
           14  0.445818700D+00   0.000000   1.000000

                  Type         
                   d
           No.      Exponent    Contraction Coefficients
           15  0.800000000D+00   1.000000

  Number of primitives                                   28
  Number of basis functions                              15

--


++    SO/AO info:
      -----------

                    **************************************************
                    ********** Petite list Basis Functions ***********
                    **************************************************


           Basis functions generated by E  

 Basis Label        Type   Center
    1  NE1           1s       1
    2  NE1           2s       1
    3  NE1           *s       1
    4  NE1           2px      1
    5  NE1           *px      1
    6  NE1           2py      1
    7  NE1           *py      1
    8  NE1           2pz      1
    9  NE1           *pz      1
   10  NE1           *200     1
   11  NE1           *110     1
   12  NE1           *101     1
   13  NE1           *020     1
   14  NE1           *011     1
   15  NE1           *002     1

      Basis set specifications :
      Symmetry species        a  
      Basis functions          15
--


            Nuclear Potential Energy              0.00000000 au

--- Stop Module: gateway at Tue Mar 22 16:03:25 2022 /rc=_RC_ALL_IS_WELL_ ---

*** symbolic link created: INPORB -> molcas.RasOrb
--- Start Module: seward at Tue Mar 22 16:03:25 2022 ---

()()()()()()()()()()()()()()()()()()()()()()()()()()()()()()()()()()()()()()()()()()()()()()()()()()

                                              &SEWARD

                                   only a single process is used
                       available to each process: 4.0 GB of memory, 1 thread?
                                             pid: 10554
()()()()()()()()()()()()()()()()()()()()()()()()()()()()()()()()()()()()()()()()()()()()()()()()()()

               SEWARD will generate:
                  Multipole Moment integrals up to order  2
                  Kinetic Energy integrals
                  Nuclear Attraction integrals (point charge)
                  One-Electron Hamiltonian integrals
                  Velocity integrals
                  Orbital angular momentum around ( 0.0000  0.0000  0.0000 )
                  Velocity quadrupole around ( 0.0000  0.0000  0.0000 )
                  Two-Electron Repulsion integrals

                   Integrals are discarded if absolute value <: 0.10E-13
                   Integral cutoff threshold is set to       <: 0.10E-15

            Nuclear Potential Energy              0.00000000 au


      Basis set specifications :
      Symmetry species         a  
      Basis functions           15


  Input file to MOLDEN was generated!

--- Stop Module: seward at Tue Mar 22 16:03:26 2022 /rc=_RC_ALL_IS_WELL_ ---
--- Module seward spent 1 second ---

*** symbolic link created: INPORB -> molcas.ScfOrb
--- Start Module: scf at Tue Mar 22 16:03:26 2022 ---

()()()()()()()()()()()()()()()()()()()()()()()()()()()()()()()()()()()()()()()()()()()()()()()()()()

                                                &SCF

                                   only a single process is used
                       available to each process: 4.0 GB of memory, 1 thread?
                                             pid: 10578
()()()()()()()()()()()()()()()()()()()()()()()()()()()()()()()()()()()()()()()()()()()()()()()()()()

++    Input section:
      --------------

      Header of the integral files:
      
       Integrals generated by Gateway/Seward, Tue Mar 22 16:03:25 2022


      Cartesian coordinates in Angstrom:
      -----------------------------------------------------
      No.  Label        X            Y            Z        
      -----------------------------------------------------
       1   NE1        0.00000000   0.00000000   0.00000000
      -----------------------------------------------------
      Nuclear repulsion energy =    0.00000000
--

++    Orbital specifications:
      -----------------------

      Symmetry species               1
                                     a
      Frozen orbitals                0
      Occupied orbitals              5
      Secondary orbitals            10
      Deleted orbitals               0
      Total number of orbitals      15
      Number of basis functions     15
--

      Molecular charge                           0.000

++    Optimization specifications:
      ----------------------------

      SCF Algorithm: Conventional
      Minimized density differences are used
      Number of density matrices in core                5
      Maximum number of NDDO SCF iterations           400
      Maximum number of HF SCF iterations             400
      Threshold for SCF energy change            0.10E-08
      Threshold for density matrix               0.10E-03
      Threshold for Fock matrix                  0.15E-03
      Threshold for linear dependence            0.10E-08
      Threshold at which DIIS is turned on       0.15E+00
      Threshold at which QNR/C2DIIS is turned on 0.75E-01
      Threshold for Norm(delta) (QNR/C2DIIS)     0.20E-04
      DIIS extrapolation of the SCF procedure
      All orbitals punched on: SCFORB
--

      Input vectors read from INPORB
      Orbital file label: * SCF orbitals


++ Convergence information
                                   SCF        iterations: Energy and convergence statistics

Iter     Tot. SCF        One-elec.       Two-elec.     Energy      Max Dij or  Max Fij      DNorm      TNorm      AccCon     Time
         Energy          Energy          Energy        Change      Delta Norm                                                in Sec.
   1  -128.474406520  -182.623888431    54.149481911   0.00E+00    0.18E-10    0.33E-10     0.38E+01   0.53E+02   None         0.
   2  -128.474406520  -182.623888432    54.149481912   0.28E-13    0.21E-10    0.12E-11     0.13E-09   0.53E+02   EDIIS        0.

       Convergence after  2 Macro Iterations
--

 *****************************************************************************************************************************
 *                                                                                                                           *
 *                                             SCF/KS-DFT Program, Final results                                             *
 *                                                                                                                           *
 *                                                                                                                           *
 *                                                                                                                           *
 *                                                       Final Results                                                       *
 *                                                                                                                           *
 *****************************************************************************************************************************

::    Total SCF energy                               -128.4744065199
      One-electron energy                            -182.6238884319
      Two-electron energy                              54.1494819120
      Nuclear repulsion energy                          0.0000000000
      Kinetic energy (interpolated)                   128.3606833520
      Virial theorem                                    1.0008859657
      Total spin, S(S+1)                                0.0000000000
      Total spin, S                                     0.0000000000
      Max non-diagonal density matrix element           0.0000000000
      Max non-diagonal Fock matrix element              0.0000000000


      All orbitals with orbital energies smaller than  E(LUMO)+0.5 are printed

++    Molecular orbitals:
      -------------------

      Title: SCF orbitals

      Molecular orbitals for symmetry species 1: a  

          Orbital            1         2         3         4         5         6         7         8         9        10    
          Energy          -32.7611   -1.9107   -0.8302   -0.8302   -0.8302    1.7562    1.7562    1.7562    1.8940    2.1659
          Occ. No.          2.0000    2.0000    2.0000    2.0000    2.0000    0.0000    0.0000    0.0000    0.0000    0.0000

        1 NE1    1s         0.9949   -0.2398   -0.0000   -0.0000   -0.0000   -0.0000    0.0000    0.0000   -0.0026   -0.0000
        2 NE1    2s         0.0165    0.5773    0.0000    0.0000    0.0000    0.0000   -0.0000   -0.0000    2.1757    0.0000
        3 NE1    *s         0.0057    0.4653    0.0000    0.0000    0.0000   -0.0000    0.0000    0.0000   -3.3733    0.0000
        4 NE1    2px       -0.0000    0.0000   -0.0363    0.4922   -0.4825   -0.2992   -0.6688   -0.5547   -0.0000    0.0000
        5 NE1    *px       -0.0000    0.0000   -0.0241    0.3275   -0.3211    0.3430    0.7668    0.6360    0.0000   -0.0000
        6 NE1    2py        0.0000   -0.0000    0.6892    0.0179   -0.0335   -0.6660    0.5534   -0.3080    0.0000   -0.0000
        7 NE1    *py        0.0000   -0.0000    0.4586    0.0119   -0.0223    0.7635   -0.6344    0.3531   -0.0000    0.0000
        8 NE1    2pz        0.0000   -0.0000    0.0113    0.4836    0.4924   -0.5581   -0.3017    0.6649    0.0000   -0.0000
        9 NE1    *pz        0.0000   -0.0000    0.0075    0.3218    0.3277    0.6399    0.3459   -0.7622   -0.0000    0.0000
       10 NE1    *200      -0.0018    0.0160    0.0000    0.0000    0.0000    0.0000   -0.0000    0.0000    0.3812   -0.3697
       11 NE1    *110      -0.0000   -0.0000   -0.0000    0.0000   -0.0000    0.0000   -0.0000    0.0000   -0.0000    0.0003
       12 NE1    *101      -0.0000   -0.0000    0.0000    0.0000   -0.0000    0.0000   -0.0000   -0.0000    0.0000    0.0017
       13 NE1    *020      -0.0018    0.0160    0.0000    0.0000    0.0000   -0.0000    0.0000    0.0000    0.3812    0.5689
       14 NE1    *011      -0.0000    0.0000   -0.0000   -0.0000   -0.0000    0.0000    0.0000   -0.0000   -0.0000    0.0001
       15 NE1    *002      -0.0018    0.0160   -0.0000   -0.0000    0.0000    0.0000   -0.0000   -0.0000    0.3812   -0.1992

          Orbital           11        12        13        14    
          Energy            2.1659    2.1659    2.1659    2.1659
          Occ. No.          0.0000    0.0000    0.0000    0.0000

        1 NE1    1s         0.0000   -0.0000    0.0000    0.0000
        2 NE1    2s         0.0000   -0.0000    0.0000    0.0000
        3 NE1    *s        -0.0000    0.0000   -0.0000   -0.0000
        4 NE1    2px       -0.0000   -0.0000   -0.0000    0.0000
        5 NE1    *px        0.0000    0.0000    0.0000   -0.0000
        6 NE1    2py       -0.0000    0.0000   -0.0000    0.0000
        7 NE1    *py        0.0000   -0.0000    0.0000   -0.0000
        8 NE1    2pz        0.0000    0.0000    0.0000   -0.0000
        9 NE1    *pz       -0.0000   -0.0000   -0.0000    0.0000
       10 NE1    *200      -0.4435    0.0002    0.0005   -0.0001
       11 NE1    *110      -0.0004   -0.0000    0.0000    1.0000
       12 NE1    *101      -0.0004    0.8496    0.5274    0.0000
       13 NE1    *020      -0.0984   -0.0008   -0.0005   -0.0002
       14 NE1    *011       0.0007   -0.5274    0.8496   -0.0000
       15 NE1    *002       0.5419    0.0006   -0.0000    0.0003
--


++    Molecular charges:
      ------------------

      Mulliken charges per centre and basis function type
      ---------------------------------------------------

                NE1   
      1s       1.9966
      2s       1.0493
      2px      1.2655
      2pz      1.2655
      2py      1.2655
      *s       0.8584
      *px      0.7345
      *pz      0.7345
      *py      0.7345
      *200     0.0319
      *110     0.0000
      *101     0.0000
      *020     0.0319
      *011     0.0000
      *002     0.0319
      Total   10.0000

      N-E     -0.0000

      Total electronic charge=   10.000000

      Total            charge=   -0.000000
--


++    Molecular properties:
      ---------------------

      Charge (e):
                      =    0.0000
      Dipole Moment (Debye):
      Origin of the operator (Ang)=    0.0000    0.0000    0.0000
                   X=  3.6822E-21               Y=  6.4993E-21               Z= -1.9419E-20           Total=  2.0806E-20
      Quadrupole Moment (Debye*Ang):
      Origin of the operator (Ang)=    0.0000    0.0000    0.0000
                  XX= -4.0468E+00              XY= -2.4329E-17              XZ=  1.1503E-16              YY= -4.0468E+00
                  YZ= -5.6445E-17              ZZ= -4.0468E+00
      In traceless form (Debye*Ang)
                  XX= -1.4933E-15              XY= -3.6493E-17              XZ=  1.7254E-16              YY=  2.9866E-16
                  YZ= -8.4667E-17              ZZ=  1.1946E-15
--


  Input file to MOLDEN was generated!

 ###############################################################################
 ###############################################################################
 ###                                                                         ###
 ###                                                                         ###
 ###    WARNING: RunFile label nBas                                          ###
 ###    was used       72 times                                              ###
 ###                                                                         ###
 ###                                                                         ###
 ###############################################################################
 ###############################################################################
--- Stop Module: scf at Tue Mar 22 16:03:26 2022 /rc=_RC_ALL_IS_WELL_ ---

*** symbolic link created: INPORB -> molcas.RasOrb
--- Start Module: rasscf at Tue Mar 22 16:03:26 2022 ---

()()()()()()()()()()()()()()()()()()()()()()()()()()()()()()()()()()()()()()()()()()()()()()()()()()

                                              &RASSCF

                                   only a single process is used
                       available to each process: 4.0 GB of memory, 1 thread?
                                             pid: 10582
()()()()()()()()()()()()()()()()()()()()()()()()()()()()()()()()()()()()()()()()()()()()()()()()()()


      Header of the ONEINT file:
      --------------------------
      
      Integrals generated by Gateway/Seward, Tue Mar 22 16:03:25 2022


      OrdInt status: non-squared


      Cartesian coordinates in Angstrom:
      -----------------------------------------------------
      No.  Label        X            Y            Z        
      -----------------------------------------------------
       1   NE1        0.00000000   0.00000000   0.00000000
      -----------------------------------------------------
      Nuclear repulsion energy =    0.00000000

++    Wave function specifications:
      -----------------------------

      Number of closed shell electrons           2
      Number of electrons in active shells       8
      Max number of holes in RAS1 space          0
      Max nr of electrons in RAS3 space          0
      Number of inactive orbitals                1
      Number of active orbitals                  5
      Number of secondary orbitals               9
      Spin quantum number                      0.0
      State symmetry                             1
--

++    Orbital specifications:
      -----------------------

      Symmetry species                           1
                                                 a
      Frozen orbitals                            0
      Inactive orbitals                          1
      Active orbitals                            5
      RAS1 orbitals                              0
      RAS2 orbitals                              5
      RAS3 orbitals                              0
      Secondary orbitals                         9
      Deleted orbitals                           0
      Number of basis functions                 15
--

++    CI expansion specifications:
      ----------------------------

      Number of CSFs                            15
      Number of determinants                    15
      Number of root(s) required                 2
      Root chosen for geometry opt.              2
      CI roots used                              1     2
      weights                                0.500 0.500
      highest root included in the CI            2
      max. size of the explicit Hamiltonian     15
--

++    Optimization specifications:
      ----------------------------

      RASSCF algorithm: Conventional
      Maximum number of macro iterations       200
      Maximum number of SX iterations          100
      Threshold for RASSCF energy            0.100E-07
      Threshold for max MO rotation          0.100E+00
      Threshold for max BLB element          0.100E-03
      Level shift parameter                  0.500E+00
      Make Quasi-Newton update
--

      Orbitals from runfile: scf orbitals
      The MO-coefficients are taken from scf orbitals on runfile

      Total molecular charge    0.00

      ************************************************************************************************************************
      *                                                                                                                      *
      *                                            Wave function control section                                             *
      *                                                                                                                      *
      ************************************************************************************************************************


                                         RASSCF iterations: Energy and convergence statistics
                                         ----------------------------------------------------

      Iter CI   SX   CI       RASSCF       Energy    max ROT     max BLB   max BLB  Level Ln srch  Step   QN   Walltime
          iter iter root      energy       change     param      element    value   shift minimum  type update hh:mm:ss
 Nr of preliminary CI iterations:   1
        1   1    7    0  -127.55114478    0.00E+00  -0.95E-01    2   9 1 -0.54E-01*  0.00   0.00    SX    NO    0:00:00
        2   1    7    0  -127.55264228   -0.15E-02* -0.28E-01    1   9 1  0.15E-01*  0.00   0.00    SX    NO    0:00:00
        3   1    7    0  -127.55271511   -0.73E-04*  0.10E-01    1   9 1  0.27E-02*  0.00   0.00    SX    NO    0:00:00
        4   1    6    0  -127.55271838   -0.33E-05*  0.42E-02    5   8 1  0.58E-03*  0.00   0.00    SX    NO    0:00:00
        5   1    5    0  -127.55271858   -0.19E-06*  0.18E-02    1   9 1  0.14E-03*  0.00   0.89    QN   YES    0:00:00
        6   1    4    0  -127.55271859   -0.16E-07*  0.12E-02    4   7 1  0.16E-04   0.00   1.39    QN   YES    0:00:00
        7   1    3    0  -127.55271860   -0.20E-08  -0.11E-03    4   7 1 -0.43E-05   0.00   1.06    QN   YES    0:00:00
      Convergence after  7 iterations
        8   1    3    0  -127.55271860   -0.21E-10  -0.11E-03    4   7 1 -0.11E-05   0.00   1.06    QN   YES    0:00:00

      ************************************************************************************************************************
                                                      Wave function printout:
                       occupation of active orbitals, and spin coupling of open shells (u,d: Spin up or down)
      ************************************************************************************************************************

      Note: transformation to natural orbitals
      has been made, which may change the order of the CSFs.

      printout of CI-coefficients larger than -1.00 for root  1
      energy=    -128.483492
      conf/sym  11111     Coeff  Weight
             1  22220   0.99849 0.99698
             2  222ud  -0.00000 0.00000
             3  22u2d   0.00000 0.00000
             4  22202  -0.00453 0.00002
             5  22ud2   0.00000 0.00000
             6  22022  -0.00453 0.00002
             7  2u22d   0.02041 0.00042
             8  2u2d2   0.00000 0.00000
             9  2ud22   0.00000 0.00000
            10  u222d  -0.00000 0.00000
            11  u22d2   0.00000 0.00000
            12  u2d22   0.00000 0.00000
            13  20222  -0.05023 0.00252
            14  ud222  -0.00000 0.00000
            15  02222  -0.00658 0.00004

      printout of CI-coefficients larger than -1.00 for root  2
      energy=    -126.621945
      conf/sym  11111     Coeff  Weight
             1  22220   0.00000 0.00000
             2  222ud   0.99962 0.99925
             3  22u2d   0.00000 0.00000
             4  22202  -0.00000 0.00000
             5  22ud2  -0.00000 0.00000
             6  22022  -0.00000 0.00000
             7  2u22d   0.00000 0.00000
             8  2u2d2  -0.02739 0.00075
             9  2ud22   0.00000 0.00000
            10  u222d  -0.00000 0.00000
            11  u22d2  -0.00000 0.00000
            12  u2d22  -0.00000 0.00000
            13  20222   0.00000 0.00000
            14  ud222   0.00000 0.00000
            15  02222  -0.00000 0.00000

      Natural orbitals and occupation numbers for root  1
      sym 1:   1.999913   1.994914   1.999959   1.999959   0.005254

      Natural orbitals and occupation numbers for root  2
      sym 1:   2.000000   2.000000   2.000000   1.000000   1.000000

      ************************************************************************************************************************
      *                                                                                                                      *
      *                                                    Final results                                                     *
      *                                                                                                                      *
      ************************************************************************************************************************


++    Wave function specifications:
      -----------------------------

      Number of closed shell electrons           2
      Number of electrons in active shells       8
      Max number of holes in RAS1 space          0
      Max nr of electrons in RAS3 space          0
      Number of inactive orbitals                1
      Number of active orbitals                  5
      Number of secondary orbitals               9
      Spin quantum number                      0.0
      State symmetry                             1
--

++    Orbital specifications:
      -----------------------

      Symmetry species                           1
                                                 a
      Frozen orbitals                            0
      Inactive orbitals                          1
      Active orbitals                            5
      RAS1 orbitals                              0
      RAS2 orbitals                              5
      RAS3 orbitals                              0
      Secondary orbitals                         9
      Deleted orbitals                           0
      Number of basis functions                 15
--

++    CI expansion specifications:
      ----------------------------

      Number of CSFs                            15
      Number of determinants                    15
      Number of root(s) required                 2
      CI roots used                              1     2
      weights                                0.500 0.500
      highest root included in the CI            2
      Root passed to geometry opt.               2
--

++    Final optimization conditions:
      ------------------------------

      Average CI energy                            -127.55271860
      RASSCF energy for state  2                   -126.62194532
      Super-CI energy                                -0.00000000
      RASSCF energy change                           -0.00000000
      Max change in MO coefficients               0.108E-03
      Max non-diagonal density matrix element    -0.106E-03
      Maximum BLB matrix element                 -0.113E-05
      (orbital pair   4,   7 in symmetry   1)
      Norm of electronic gradient            0.101E+00
--


      Final state energy(ies):
      ------------------------

::    RASSCF root number  1 Total energy:   -128.48349188
::    RASSCF root number  2 Total energy:   -126.62194532

++    Molecular orbitals:
      -------------------

      Pseudonatural active orbitals and approximate occupation numbers




      Molecular orbitals for symmetry species 1: a  


      Orbital                 1         2         3         4         5         6
      Energy           -32.1953    0.0000    0.0000    0.0000    0.0000    0.0000
      Occ. No.           2.0000    2.0000    1.9969    2.0000    1.5000    0.5032

     1 NE1    1s         1.0187   -0.0986   -0.0000    0.0000    0.0000   -0.0000
     2 NE1    2s        -0.0660    0.5842    0.0000   -0.0000   -0.0000    0.0000
     3 NE1    *s        -0.0572    0.4495    0.0000   -0.0000   -0.0000    0.0000
     4 NE1    2px       -0.0000    0.0000    0.2263    0.5750   -0.3277   -0.2981
     5 NE1    *px       -0.0000    0.0000    0.1478    0.3686   -0.2091    0.3438
     6 NE1    2py       -0.0000   -0.0000    0.5036   -0.3740   -0.3048   -0.6634
     7 NE1    *py        0.0000   -0.0000    0.3289   -0.2397   -0.1944    0.7652
     8 NE1    2pz        0.0000    0.0000    0.4221    0.1380    0.5393   -0.5560
     9 NE1    *pz        0.0000    0.0000    0.2756    0.0885    0.3441    0.6413
    10 NE1    *200      -0.0044    0.0170    0.0000   -0.0000   -0.0000    0.0000
    11 NE1    *110       0.0002   -0.0018   -0.0000    0.0000    0.0000    0.0000
    12 NE1    *101       0.0001   -0.0004   -0.0000    0.0000    0.0000    0.0000
    13 NE1    *020      -0.0043    0.0158    0.0000   -0.0000   -0.0000    0.0000
    14 NE1    *011       0.0003   -0.0018   -0.0000    0.0000    0.0000    0.0000
    15 NE1    *002      -0.0043    0.0158    0.0000   -0.0000   -0.0000    0.0000
--

      Von Neumann Entropy (Root   1) =  0.02631


      Mulliken population analysis for root number:  1
      -----------------------------------------------


++    Molecular charges:
      ------------------

      Mulliken charges per centre and basis function type
      ---------------------------------------------------

                NE1   
      1s       1.9965
      2s       1.0704
      2px      1.2844
      2pz      1.2740
      2py      1.2661
      *s       0.8341
      *px      0.7156
      *pz      0.7260
      *py      0.7340
      *200     0.0346
      *110     0.0000
      *101     0.0000
      *020     0.0322
      *011     0.0000
      *002     0.0322
      Total   10.0000

      N-E     -0.0000

      Total electronic charge=   10.000000

      Total            charge=   -0.000000
--



      Expectation values of various properties for root number:  1
      -----------------------------------------------------------


++    Molecular properties:
      ---------------------

      Charge (e):
                      =   -0.0000
      Dipole Moment (Debye):
      Origin of the operator (Ang)=    0.0000    0.0000    0.0000
                   X= -1.7493E-16               Y= -2.8986E-16               Z= -1.3809E-16           Total=  3.6563E-16
      Quadrupole Moment (Debye*Ang):
      Origin of the operator (Ang)=    0.0000    0.0000    0.0000
                  XX= -4.0033E+00              XY= -8.5292E-03              XZ= -1.0836E-02              YY= -4.0211E+00
                  YZ= -2.0876E-02              ZZ= -4.0117E+00
      In traceless form (Debye*Ang)
                  XX=  1.3174E-02              XY= -1.2794E-02              XZ= -1.6255E-02              YY= -1.3631E-02
                  YZ= -3.1314E-02              ZZ=  4.5713E-04
--

      Von Neumann Entropy (Root   2) =  1.00000


      Mulliken population analysis for root number:  2
      -----------------------------------------------


++    Molecular charges:
      ------------------

      Mulliken charges per centre and basis function type
      ---------------------------------------------------

                NE1   
      1s       1.9965
      2s       1.0704
      2px      1.1882
      2pz      1.0480
      2py      1.3666
      *s       0.8341
      *px      0.6992
      *pz      0.7286
      *py      0.9694
      *200     0.0346
      *110     0.0000
      *101     0.0000
      *020     0.0322
      *011     0.0000
      *002     0.0322
      Total   10.0000

      N-E     -0.0000

      Total electronic charge=   10.000000

      Total            charge=   -0.000000
--



      Expectation values of various properties for root number:  2
      -----------------------------------------------------------


++    Molecular properties:
      ---------------------

      Charge (e):
                      =   -0.0000
      Dipole Moment (Debye):
      Origin of the operator (Ang)=    0.0000    0.0000    0.0000
                   X= -2.5669E-14               Y= -2.3355E-14               Z=  4.3055E-14           Total=  5.5300E-14
      Quadrupole Moment (Debye*Ang):
      Origin of the operator (Ang)=    0.0000    0.0000    0.0000
                  XX= -4.3472E+00              XY= -1.8925E-01              XZ= -4.8731E-01              YY= -4.9256E+00
                  YZ= -7.9560E-01              ZZ= -4.4668E+00
      In traceless form (Debye*Ang)
                  XX=  3.4904E-01              XY= -2.8388E-01              XZ= -7.3096E-01              YY= -5.1862E-01
                  YZ= -1.1934E+00              ZZ=  1.6958E-01
--


  Input file to MOLDEN was generated!


  Input file to MOLDEN was generated!


  Input file to MOLDEN was generated!

      Average orbitals are written to the RASORB file
      Natural orbitals for root   1 are written to the RASORB.1 file
      Natural orbitals for root   2 are written to the RASORB.2 file
      Spin density orbitals for root   1 are written to the SPDORB.1 file
      Spin density orbitals for root   2 are written to the SPDORB.2 file

--- Stop Module: rasscf at Tue Mar 22 16:03:27 2022 /rc=_RC_ALL_IS_WELL_ ---

*** symbolic link created: INPORB -> molcas.RasOrb
--- Start Module: caspt2 at Tue Mar 22 16:03:27 2022 ---

()()()()()()()()()()()()()()()()()()()()()()()()()()()()()()()()()()()()()()()()()()()()()()()()()()

                                              &CASPT2

                                   only a single process is used
                       available to each process: 4.0 GB of memory, 1 thread?
                                             pid: 10585
()()()()()()()()()()()()()()()()()()()()()()()()()()()()()()()()()()()()()()()()()()()()()()()()()()


++    Wave function specifications:
      -----------------------------

      Number of closed shell electrons           0
      Number of electrons in active shells       8
      Max number of holes in RAS1 space          0
      Max number of electrons in RAS3 space      0
      Number of inactive orbitals                0
      Number of active orbitals                  5
      Number of secondary orbitals               9
      Spin quantum number                      0.0
      State symmetry                             1
      Number of CSFs                            15
      Number of root(s) available                2
      Root passed to geometry opt.               2
      A file JOBMIX will be created
      This is a MULTI-STATE CASSCF reference
      Number of CI roots used                    2
      These are:                                 1   2
      Off-diagonal elements of Heff are computed
--

++    Orbital specifications:
      -----------------------

      Symmetry species                           1
                                                 a
      Frozen orbitals                            1
      Inactive orbitals                          0
      Active orbitals                            5
      Secondary orbitals                         9
      Deleted orbitals                           0
      Number of basis functions                 15
--

++    CASPT2 specifications:
      ----------------------

      Type of calculation                        XMS-CASPT2
      Fock operator                              state-average
      IPEA shift                                 0.00
      Real shift                                 0.00
      Imaginary shift                            0.00
      The input orbitals will be transformed to quasi-canonical
      The input states will be rotated to diagonalize the Fock operator
--


  The wave functions (P_CAS) H W |Psi_0> and (P_CAS) W H |Psi_0>
  will be computed and written out for subsequent
  use in a gradient calculation.
--------------------------------------------------------------------------------
 Estimated memory requirements:
  POLY3 :                   251030
  RHS:                      260517
  SIGMA :                   254500
  PRPCTL:                   269774
 Available workspace:    449992764

++ CASPT2 computation for group   1

********************************************************************************
 Multi-State initialization phase begins for group   1
--------------------------------------------------------------------------------

  H0 in the original model space basis:
                1               2
   1      -10.02231875     -0.00000000
   2       -0.00000000     -7.77506043

  H0 eigenvectors:
                1               2
   1        1.00000000     -0.00000000
   2        0.00000000      1.00000000

********************************************************************************
 Compute H0 matrices for state    1
--------------------------------------------------------------------------------
--------------------------------------------------------------------------------
 H0 matrices have been computed.

********************************************************************************
  CASPT2 EQUATION SOLUTION
--------------------------------------------------------------------------------

  Total nr of CASPT2 parameters:
   Before reduction:        2160
   After  reduction:        1395

 The contributions to the second order correlation energy in atomic units.
-----------------------------------------------------------------------------------------------------------------------------
  IT.      VJTU        VJTI        ATVX        AIVX        VJAI        BVAT        BJAT        BJAI        TOTAL       RNORM  
-----------------------------------------------------------------------------------------------------------------------------
   1     0.000000    0.000000   -0.044303    0.000000    0.000000   -0.092788    0.000000    0.000000   -0.137090    0.000148
   2     0.000000    0.000000   -0.044302    0.000000    0.000000   -0.092799    0.000000    0.000000   -0.137101    0.000001
-----------------------------------------------------------------------------------------------------------------------------

  FINAL CASPT2 RESULT:

      Reference energy:        -128.4834918756
      E2 (Non-variational):      -0.1371012608
      E2 (Variational):          -0.1371012604
      Total energy:            -128.6205931360
      Residual norm:              0.0000000120
      Reference weight:           0.97583

      Contributions to the CASPT2 correlation energy
      Active & Virtual Only:         -0.1371012608
      One Inactive Excited:           0.0000000000
      Two Inactive Excited:           0.0000000000


++ Denominators, etc.
--------------------------------------------------------------------------------------------------------------
 Report on small energy denominators, large coefficients, and large energy contributions.
CASE  SYMM ACTIVE-MIX  NON-ACTIVE INDICES          DENOMINATOR     RHS VALUE       COEFFICIENT     CONTRIBUTION
ATVX     1  Mu1.0011  Se1.007                       5.05577003      0.17681472     -0.03499482     -0.00618760
ATVX     1  Mu1.0012  Se1.007                       5.05577003     -0.21905601      0.04336497     -0.00949936
ATVX     1  Mu1.0008  Se1.008                       4.86732119     -0.16292889      0.03348801     -0.00545616
ATVX     1  Mu1.0009  Se1.008                       4.86732119     -0.22916425      0.04710946     -0.01079580
ATVX     1  Mu1.0018  Se1.009                       6.84755841      0.19501973     -0.02849804     -0.00555768
BVATP    1  Mu1.0005  Se1.007 Se1.007               5.20205586     -0.20030336      0.03850459     -0.00771260
BVATP    1  Mu1.0003  Se1.008 Se1.007               5.01674170      0.17826338     -0.03541259     -0.00631277
BVATP    1  Mu1.0001  Se1.008 Se1.008               4.82532874     -0.19952386      0.04104167     -0.00818879
BVATP    1  Mu1.0009  Se1.009 Se1.007               6.99671481     -0.19495523      0.02786368     -0.00543217
BVATP    1  Mu1.0007  Se1.009 Se1.008               6.80827394     -0.19425444      0.02848313     -0.00553297
BVATM    1  Mu1.0002  Se1.008 Se1.007               5.01674170     -0.23473976      0.04658151     -0.01093453
BVATM    1  Mu1.0002  Se1.011 Se1.010               5.82197652     -0.15858699      0.02723937     -0.00431981
BVATM    1  Mu1.0003  Se1.014 Se1.013               6.04956172      0.15502615     -0.02562601     -0.00397270
--

********************************************************************************
  CASPT2 PROPERTY SECTION
--------------------------------------------------------------------------------
 * TypeIndex information is IGNORED *

  Input file to MOLDEN was generated!



      Mulliken population Analysis:
      -----------------------------

++    Molecular charges:
      ------------------

      Mulliken charges per centre and basis function type
      ---------------------------------------------------

                NE1   
      1s       1.9966
      2s       1.0520
      2px      1.2587
      2pz      1.2535
      2py      1.2520
      *s       0.8528
      *px      0.7373
      *pz      0.7424
      *py      0.7441
      *200     0.0348
      *110     0.0024
      *101     0.0024
      *020     0.0342
      *011     0.0024
      *002     0.0343
      Total   10.0000

      N-E     -0.0000

      Total electronic charge=   10.000000

      Total            charge=   -0.000000
--


      Expectation values of various properties:
      -----------------------------------------

++    Molecular properties:
      ---------------------

      Charge (e):
                      =   -0.0000
      Dipole Moment (Debye):
      Origin of the operator (Ang)=    0.0000    0.0000    0.0000
                   X= -2.0452E-15               Y= -2.5380E-15               Z= -1.4762E-15           Total=  3.5782E-15
      Quadrupole Moment (Debye*Ang):
      Origin of the operator (Ang)=    0.0000    0.0000    0.0000
                  XX= -4.0852E+00              XY= -4.5793E-03              XZ= -2.6488E-03              YY= -4.0924E+00
                  YZ= -6.9411E-03              ZZ= -4.0906E+00
      In traceless form (Debye*Ang)
                  XX=  6.3450E-03              XY= -6.8690E-03              XZ= -3.9732E-03              YY= -4.5435E-03
                  YZ= -1.0412E-02              ZZ= -1.8015E-03
--

********************************************************************************
 Compute H0 matrices for state    2
--------------------------------------------------------------------------------
--------------------------------------------------------------------------------
 H0 matrices have been computed.

********************************************************************************
  CASPT2 EQUATION SOLUTION
--------------------------------------------------------------------------------

  Total nr of CASPT2 parameters:
   Before reduction:        2160
   After  reduction:        1197

 The contributions to the second order correlation energy in atomic units.
-----------------------------------------------------------------------------------------------------------------------------
  IT.      VJTU        VJTI        ATVX        AIVX        VJAI        BVAT        BJAT        BJAI        TOTAL       RNORM  
-----------------------------------------------------------------------------------------------------------------------------
   1     0.000000    0.000000   -0.032083    0.000000    0.000000   -0.073986    0.000000    0.000000   -0.106069    0.000064
   2     0.000000    0.000000   -0.032085    0.000000    0.000000   -0.073989    0.000000    0.000000   -0.106074    0.000003
-----------------------------------------------------------------------------------------------------------------------------

  FINAL CASPT2 RESULT:

      Reference energy:        -126.6219453165
      E2 (Non-variational):      -0.1060737606
      E2 (Variational):          -0.1060737545
      Total energy:            -126.7280190710
      Residual norm:              0.0000001010
      Reference weight:           0.97882

      Contributions to the CASPT2 correlation energy
      Active & Virtual Only:         -0.1060737606
      One Inactive Excited:           0.0000000000
      Two Inactive Excited:           0.0000000000


++ Denominators, etc.
--------------------------------------------------------------------------------------------------------------
 Report on small energy denominators, large coefficients, and large energy contributions.
CASE  SYMM ACTIVE-MIX  NON-ACTIVE INDICES          DENOMINATOR     RHS VALUE       COEFFICIENT     CONTRIBUTION
ATVX     1  Mu1.0001  Se1.007                       0.13866973      0.00000000     -0.00000000     -0.00000000
ATVX     1  Mu1.0024  Se1.007                       5.07430920      0.20414366     -0.04022755     -0.00821220
ATVX     1  Mu1.0001  Se1.008                       0.14830542     -0.00000000      0.00000000     -0.00000000
ATVX     1  Mu1.0005  Se1.008                       2.41410291      0.06111580     -0.02531774     -0.00154731
ATVX     1  Mu1.0001  Se1.009                       0.26359788      0.00000000     -0.00000000     -0.00000000
ATVX     1  Mu1.0015  Se1.010                       4.67651022     -0.14247941      0.03044753     -0.00433815
ATVX     1  Mu1.0018  Se1.012                       4.89422670      0.12501282     -0.02552574     -0.00319105
BVATP    1  Mu1.0007  Se1.007 Se1.007               5.20538381     -0.19976295      0.03837628     -0.00766616
BVATP    1  Mu1.0005  Se1.008 Se1.007               5.01693497      0.12605383     -0.02516083     -0.00317162
BVATP    1  Mu1.0011  Se1.009 Se1.007               6.99717219     -0.19496145      0.02786303     -0.00543222
BVATP    1  Mu1.0001  Se1.012 Se1.009               3.08706004     -0.10456553      0.03387220     -0.00354186
BVATM    1  Mu1.0004  Se1.008 Se1.007               5.01693497     -0.16598948      0.03326536     -0.00552170
BVATM    1  Mu1.0006  Se1.014 Se1.013               6.06760223     -0.15210361      0.02506816     -0.00381296
--

********************************************************************************
  CASPT2 PROPERTY SECTION
--------------------------------------------------------------------------------
 * TypeIndex information is IGNORED *

  Input file to MOLDEN was generated!



      Mulliken population Analysis:
      -----------------------------

++    Molecular charges:
      ------------------

      Mulliken charges per centre and basis function type
      ---------------------------------------------------

                NE1   
      1s       1.9964
      2s       1.0879
      2px      1.2042
      2pz      1.0615
      2py      1.3726
      *s       0.8148
      *px      0.6785
      *pz      0.7109
      *py      0.9560
      *200     0.0381
      *110     0.0032
      *101     0.0029
      *020     0.0346
      *011     0.0035
      *002     0.0346
      Total   10.0000

      N-E     -0.0000

      Total electronic charge=   10.000000

      Total            charge=   -0.000000
--


      Expectation values of various properties:
      -----------------------------------------

++    Molecular properties:
      ---------------------

      Charge (e):
                      =   -0.0000
      Dipole Moment (Debye):
      Origin of the operator (Ang)=    0.0000    0.0000    0.0000
                   X= -5.4008E-14               Y= -5.0357E-14               Z=  8.3972E-14           Total=  1.1182E-13
      Quadrupole Moment (Debye*Ang):
      Origin of the operator (Ang)=    0.0000    0.0000    0.0000
                  XX= -4.3079E+00              XY= -1.9073E-01              XZ= -4.9218E-01              YY= -4.8916E+00
                  YZ= -8.0325E-01              ZZ= -4.4282E+00
      In traceless form (Debye*Ang)
                  XX=  3.5201E-01              XY= -2.8609E-01              XZ= -7.3827E-01              YY= -5.2360E-01
                  YZ= -1.2049E+00              ZZ=  1.7160E-01
--

--

  Total CASPT2 energies:

  State-specific CASPT2 energies obtained using
  rotated states do not have a well-defined physical
  meaning, however they can be extracted from the
  diagonal of the effective Hamiltonian.

++ Multi-State CASPT2 section:
********************************************************************************
  MULTI-STATE CASPT2 SECTION
--------------------------------------------------------------------------------

  Output diagonal energies have been shifted. Add   -128.00000000000000     

  Effective Hamiltonian matrix (Symmetric):

                1               2
   1        -0.62059314
   2         0.00000000      1.27198093

       Total XMS-CASPT2 energies:
::    XMS-CASPT2 Root  1     Total energy:   -128.62059314
::    XMS-CASPT2 Root  2     Total energy:   -126.72801907

       Eigenvectors:
            1.00000000      0.00000000
           -0.00000000      1.00000000

       In terms of the input states:
            1.00000000      0.00000000
           -0.00000000      1.00000000

--

  THE ORIGINAL CI ARRAYS ARE NOW MIXED AS LINEAR
  COMBINATIONS, GIVEN BY THE EIGENVECTORS.
  A NEW JOBIPH FILE NAMED 'JOBMIX' IS PREPARED.
********************************************************************************

++ Mixed CI coefficients:
  The CI coefficients for the MIXED state nr.   1
--------------------------------------------------------------------------------
 CI COEFFICIENTS LARGER THAN -0.10D+01
  Occupation of active orbitals, and spin coupling
  of open shells. (u,d: Spin up or down).
  SGUGA info is (Midvert:IsyUp:UpperWalk/LowerWalk)
        Conf  SGUGA info        Occupation    Coefficient         Weight
           1  ( 1:1:   1/   1)   22220           0.998487       0.996976
           2  ( 1:1:   2/   1)   222ud          -0.000000       0.000000
           3  ( 1:1:   3/   1)   22u2d           0.000000       0.000000
           4  ( 1:1:   4/   1)   22202          -0.004531       0.000021
           5  ( 1:1:   5/   1)   22ud2           0.000000       0.000000
           6  ( 1:1:   6/   1)   22022          -0.004527       0.000020
           7  ( 2:1:   1/   1)   2u22d           0.020415       0.000417
           8  ( 2:1:   2/   1)   2u2d2           0.000000       0.000000
           9  ( 2:1:   3/   1)   2ud22           0.000000       0.000000
          10  ( 2:1:   1/   2)   u222d          -0.000000       0.000000
          11  ( 2:1:   2/   2)   u22d2           0.000000       0.000000
          12  ( 2:1:   3/   2)   u2d22           0.000000       0.000000
          13  ( 3:1:   1/   1)   20222          -0.050228       0.002523
          14  ( 3:1:   1/   2)   ud222          -0.000000       0.000000
          15  ( 3:1:   1/   3)   02222          -0.006579       0.000043

  The CI coefficients for the MIXED state nr.   2
--------------------------------------------------------------------------------
 CI COEFFICIENTS LARGER THAN -0.10D+01
  Occupation of active orbitals, and spin coupling
  of open shells. (u,d: Spin up or down).
  SGUGA info is (Midvert:IsyUp:UpperWalk/LowerWalk)
        Conf  SGUGA info        Occupation    Coefficient         Weight
           1  ( 1:1:   1/   1)   22220           0.000000       0.000000
           2  ( 1:1:   2/   1)   222ud           0.999625       0.999250
           3  ( 1:1:   3/   1)   22u2d           0.000000       0.000000
           4  ( 1:1:   4/   1)   22202          -0.000000       0.000000
           5  ( 1:1:   5/   1)   22ud2          -0.000000       0.000000
           6  ( 1:1:   6/   1)   22022          -0.000000       0.000000
           7  ( 2:1:   1/   1)   2u22d           0.000000       0.000000
           8  ( 2:1:   2/   1)   2u2d2          -0.027387       0.000750
           9  ( 2:1:   3/   1)   2ud22           0.000000       0.000000
          10  ( 2:1:   1/   2)   u222d          -0.000000       0.000000
          11  ( 2:1:   2/   2)   u22d2          -0.000000       0.000000
          12  ( 2:1:   3/   2)   u2d22          -0.000000       0.000000
          13  ( 3:1:   1/   1)   20222           0.000000       0.000000
          14  ( 3:1:   1/   2)   ud222           0.000000       0.000000
          15  ( 3:1:   1/   3)   02222          -0.000000       0.000000

--

 ###############################################################################
 ###############################################################################
 ###                                                                         ###
 ###                                                                         ###
 ###    WARNING: RunFile label nBas                                          ###
 ###    was used      111 times                                              ###
 ###                                                                         ###
 ###                                                                         ###
 ###############################################################################
 ###############################################################################
--- Stop Module: caspt2 at Tue Mar 22 16:03:28 2022 /rc=_RC_ALL_IS_WELL_ ---

.##################.
.# Happy landing! #.
.##################.

    Timing: Wall=3.32 User=2.38 System=0.60
