   This run of MOLCAS is using the pymolcas driver

                             OPE
                             OPE          NMOL  CASOP  ENMOLC A   SO
                 OPE        NMOLC        AS  OP EN  MO LC     AS  OP
                OPENM       OL CA        SO  PE NM  OL CA     SOP EN
                OP EN      MO   LC       AS  OP ENMOL  CASO   PENMOL
                OP  EN     MO   LC       AS  OP EN     MO     LC ASO
               OP   E  NMOL  C  AS       OP  EN MO     LC     AS  OP
               OP  E   NMO   LC AS        OPEN  MO     LCASOP EN   M
               O  PEN   MO  LCA  SO
            OPE   NMO   L   CAS    OP
        OPENMOL  CASOP     ENMOL   CASOPE
     OPENMOLCA   SOPENMOLCASOPEN   MOLCASOPE
    OPENMOLCAS   OP           EN   MOL    CAS
    OPENMOLCAS       OP  ENM        O     LCA
    OPENMOLCAS    OPEN  MOLCASO     P  E  NMO
    OPENMOLCAS     OP               E  N  MOL
    OPENMOLCA   SO           PENM   O  L  CAS    OPEN    MO    LCAS
    OPENMOLCA   SOP           ENM   O  L  CAS   OP  EN  MOLC  AS   O
    OPENMOLCA   SOPE           NM      O  LCA   S      OP  EN MO
    OPENMOLC                AS         O  PEN   M      OL  CA  SOPE
    OPENMO        LCASOPE  NMOL        C  ASO   P      ENMOLC     AS
    OPE     NMO      LCA  SO     P     E   NM   OL  CA SO  PE N   MO
          OPENMOLCA            SOPE   NMO        LCAS  O    P  ENMO
     OPENMOLCASOPENMOLCASOPENMOLCASOPENMOLCA
        OPENMOLCASOPENMOLCASOPENMOLCASOPE
            OPENMOLCASOPENMOLCASOPENM
               OPENMOLCASOPENMOLCA        version: v22.10
                   OPENMOLCASO
                       OPE                tag:

 OpenMolcas is free software; you can redistribute it and/or modify it
 under the terms of the GNU Lesser General Public License version 2.1.
 OpenMolcas is distributed in the hope that it will be useful, but it
 is provided "as is" and without any express or implied warranties.
 For more details see the full text of the license in the file
 LICENSE or in <http://www.gnu.org/licenses/>.

                 Copyright (C) The OpenMolcas Authors
           For the author list and the recommended citation,
                   consult the file CONTRIBUTORS.md

           *************************************************
           * pymolcas version py2.02                       *
           *   build 1e1d9934a2caaa3e0bb2e5f7f40b38f7      *
           *   (after the EMIL interpreter by V. Veryazov) *
           *************************************************

configuration info
------------------
Host name: lambda.chem.ox.ac.uk (Linux)
C Compiler ID: Intel
C flags: -std=gnu99 -gcc-sys
Fortran Compiler ID: Intel
Fortran flags: -fpp -i8 -heap-arrays
Definitions: _MOLCAS_;_I8_;_LINUX_
Parallel: OFF (GA=ON)


   -------------------------------------------------------------------------
  |
  |           Project: molcas
  |    Submitted from: /scratch/4417492.1.multiway.q
  |      Scratch area: /scratch/4417492.1.multiway.q/molcas
  |   Save outputs to: /scratch/4417492.1.multiway.q
  |            Molcas: /u/ajmk/newc6739/Programs/OpenMolcas/Standard_Install
  |
  | Scratch area is empty
  |
  |    MOLCAS_DRIVER = /usr/local/bin/pymolcas
  |    MOLCAS_NPROCS = 1
  |    MOLCAS_SOURCE = /u/ajmk/newc6739/Programs/OpenMolcas/Standard_Install
  | MOLCAS_STRUCTURE = 0
  |
   -------------------------------------------------------------------------

++ ---------   Input file   ---------

&GATEWAY
basis
ano-l-mb
coord = geom.xyz
group=nosym
ricd

&SEWARD

&SCF

&RASSCF
inactive=21
ras2=8
rlxroot=1
nactel=8
spin=1
CHARGE=+0
ciroot=1 1 1
PRWF=-1

-- ----------------------------------

--- Start Module: gateway at Tue Nov 15 11:40:52 2022 ---
 
()()()()()()()()()()()()()()()()()()()()()()()()()()()()()()()()()()()()()()()()()()()()()()()()()()

                                              &GATEWAY

                                   only a single process is used
                       available to each process: 2.0 GB of memory, 1 thread?
                                            pid: 164443
()()()()()()()()()()()()()()()()()()()()()()()()()()()()()()()()()()()()()()()()()()()()()()()()()()
 
 
++    Symmetry information:
      ---------------------
 
                    Character Table for C1 
 
                             E  
                    a        1  x, y, xy, Rz, z, xz, Ry, yz, Rx, I
--
 
 
++    Basis set information:
      ----------------------
 
 
      Basis set label: C.ANO-L...2S1P.
 
      Electronic valence basis set:
      ------------------
      Associated Effective Charge   6.000000 au
      Associated Actual Charge      6.000000 au
      Nuclear Model: Point charge
 
      Shell  nPrim  nBasis  Cartesian Spherical Contaminant
         s      14       2        X                  
         p       9       1        X                  
 
 
      Basis set label: H.ANO-L...1S.
 
      Electronic valence basis set:
      ------------------
      Associated Effective Charge   1.000000 au
      Associated Actual Charge      1.000000 au
      Nuclear Model: Point charge
 
      Shell  nPrim  nBasis  Cartesian Spherical Contaminant
         s       8       1        X                  
--
 
 
++    Molecular structure info:
      -------------------------
 
                    ************************************************ 
                    **** Cartesian Coordinates / Bohr, Angstrom **** 
                    ************************************************ 
 
     Center  Label                x              y              z                     x              y              z
        1      C1              -0.000039      -0.000017       0.000022             -0.000021      -0.000009       0.000011
        2      C2               4.634892      -0.000130       0.000169              2.452679      -0.000069       0.000089
        3      C3              -0.000045      -0.000193      -2.549775             -0.000024      -0.000102      -1.349283
        4      C4               4.634978      -0.001045      -2.549590              2.452725      -0.000553      -1.349185
        5      C5               2.317398       1.512784       0.842618              1.226314       0.800531       0.445894
        6      C6               2.317483       1.511143      -3.393004              1.226359       0.799662      -1.795500
        7      C7               2.317336       3.541246      -1.275411              1.226281       1.873947      -0.674919
        8      H8              -1.280247      -0.980255       1.273800             -0.677478      -0.518729       0.674066
        9      H9               5.914435      -0.981327       1.273891              3.129784      -0.519296       0.674114
       10      H10             -1.279883      -0.981409      -3.823110             -0.677285      -0.519340      -2.023103
       11      H11              5.914535      -0.982987      -3.822606              3.129837      -0.520174      -2.022836
       12      H12              2.317260       2.171859       2.802193              1.226241       1.149298       1.482857
       13      H13              2.317385       2.169338      -5.352836              1.226307       1.147964      -2.832599
       14      H14              0.615025       4.716545      -1.275772              0.325457       2.495888      -0.675109
       15      H15              4.019487       4.716839      -1.275764              2.127021       2.496043      -0.675105
 
                    *************************************** 
                    *    InterNuclear Distances / Bohr    * 
                    *************************************** 
 
               1 C1            2 C2            3 C3            4 C4            5 C5            6 C6    
    1 C1       0.000000
    2 C2       4.634931        0.000000
    3 C3       2.549796        5.290071        0.000000
    4 C4       5.289982        2.549759        4.635023        0.000000
    5 C5       2.892931        2.892993        4.378124        4.378348        0.000000
    6 C6       4.378029        4.378122        2.892422        2.892895        4.235622        0.000000
    7 C7       4.420124        4.420353        4.419959        4.420726        2.932696        2.933516
    8 H8       2.054826        6.129572        4.149598        7.111051        4.398205        6.397639
    9 H9       6.129169        2.054835        7.110845        4.149334        4.398325        6.397685
   10 H10      4.149394        7.110902        2.054789        6.129319        6.397691        4.397596
   11 H11      7.110619        4.149350        6.129293        2.054762        6.397858        4.398184
   12 H12      4.235456        4.235599        6.223445        6.223738        2.067441        6.230330
   13 H13      6.223314        6.223511        4.234914        4.235562        6.230145        2.067405
   14 H14      4.924622        6.327272        4.924328        6.327581        4.201158        4.201861
   15 H15      6.327159        4.925091        6.326936        4.925433        4.201263        4.201904
 
               7 C7            8 H8            9 H9           10 H10          11 H11          12 H12   
    7 C7       0.000000
    8 H8       6.315461        0.000000
    9 H9       6.315990        7.194682        0.000000
   10 H10      6.315470        5.096911        8.816895        0.000000
   11 H11      6.316386        8.816930        5.096498        7.194418        0.000000
   12 H12      4.301404        5.021340        5.021748        8.171731        8.171989        0.000000
   13 H13      4.302037        8.171609        8.171840        5.020718        5.021777        8.155029
   14 H14      2.068620        6.522722        8.188422        6.522752        8.188762        5.099297
   15 H15      2.068656        8.188060        6.523853        8.187937        6.524233        5.099435
 
              13 H13          14 H14          15 H15   
   13 H13      0.000000
   14 H14      5.099877        0.000000
   15 H15      5.099943        3.404461        0.000000
 
                    ******************************************* 
                    *    InterNuclear Distances / Angstrom    * 
                    ******************************************* 
 
               1 C1            2 C2            3 C3            4 C4            5 C5            6 C6    
    1 C1       0.000000
    2 C2       2.452700        0.000000
    3 C3       1.349294        2.799385        0.000000
    4 C4       2.799338        1.349274        2.452748        0.000000
    5 C5       1.530873        1.530906        2.316803        2.316922        0.000000
    6 C6       2.316753        2.316802        1.530604        1.530854        2.241395        0.000000
    7 C7       2.339029        2.339150        2.338942        2.339348        1.551916        1.552350
    8 H8       1.087367        3.243630        2.195873        3.763006        2.327430        3.385485
    9 H9       3.243417        1.087372        3.762897        2.195733        2.327493        3.385509
   10 H10      2.195765        3.762927        1.087347        3.243496        3.385512        2.327108
   11 H11      3.762778        2.195741        3.243482        1.087333        3.385601        2.327419
   12 H12      2.241307        2.241382        3.293305        3.293460        1.094043        3.296949
   13 H13      3.293236        3.293340        2.241020        2.241363        3.296851        1.094023
   14 H14      2.605998        3.348248        2.605842        3.348412        2.223157        2.223529
   15 H15      3.348188        2.606246        3.348070        2.606427        2.223213        2.223552
 
               7 C7            8 H8            9 H9           10 H10          11 H11          12 H12   
    7 C7       0.000000
    8 H8       3.341998        0.000000
    9 H9       3.342278        3.807262        0.000000
   10 H10      3.342003        2.697169        4.665700        0.000000
   11 H11      3.342487        4.665718        2.696951        3.807122        0.000000
   12 H12      2.276205        2.657179        2.657395        4.324294        4.324431        0.000000
   13 H13      2.276540        4.324229        4.324352        2.656849        2.657410        4.315456
   14 H14      1.094666        3.451676        4.333127        3.451692        4.333306        2.698432
   15 H15      1.094685        4.332935        3.452275        4.332870        3.452476        2.698505
 
              13 H13          14 H14          15 H15   
   13 H13      0.000000
   14 H14      2.698738        0.000000
   15 H15      2.698774        1.801563        0.000000
 
                    ************************************** 
                    *    Valence Bond Angles / Degree    * 
                    ************************************** 
                          Atom centers                 Phi
                      3 C3       1 C1       5 C5       106.94
                      3 C3       1 C1       8 H8       128.31
                      5 C5       1 C1       8 H8       124.61
                      4 C4       2 C2       5 C5       106.94
                      4 C4       2 C2       9 H9       128.29
                      5 C5       2 C2       9 H9       124.61
                      1 C1       3 C3       6 C6       106.95
                      1 C1       3 C3      10 H10      128.30
                      6 C6       3 C3      10 H10      124.60
                      2 C2       4 C4       6 C6       106.94
                      2 C2       4 C4      11 H11      128.30
                      6 C6       4 C4      11 H11      124.61
                      1 C1       5 C5       2 C2       106.46
                      1 C1       5 C5       7 C7        98.70
                      1 C1       5 C5      12 H12      116.28
                      2 C2       5 C5       7 C7        98.71
                      2 C2       5 C5      12 H12      116.28
                      7 C7       5 C5      12 H12      117.65
                      3 C3       6 C6       4 C4       106.48
                      3 C3       6 C6       7 C7        98.69
                      3 C3       6 C6      13 H13      116.27
                      4 C4       6 C6       7 C7        98.70
                      4 C4       6 C6      13 H13      116.28
                      7 C7       6 C6      13 H13      117.64
                      5 C5       7 C7       6 C6        92.45
                      5 C5       7 C7      14 H14      113.15
                      5 C5       7 C7      15 H15      113.15
                      6 C6       7 C7      14 H14      113.15
                      6 C6       7 C7      15 H15      113.15
                     14 H14      7 C7      15 H15      110.75
 
           ***************************************************************
           *              Valence Dihedral Angles / Degree               *
           ***************************************************************
                    Atom centers                       Phi1     Phi2     Theta 
           5 C5       1 C1       3 C3       6 C6        106.94   106.95     0.02
           5 C5       1 C1       3 C3      10 H10       106.94   128.30   175.66
           8 H8       1 C1       3 C3      10 H10       128.31   128.30    -0.03
           3 C3       1 C1       5 C5       7 C7        106.94    98.70    35.87
           3 C3       1 C1       5 C5      12 H12       106.94   116.28   162.68
           8 H8       1 C1       5 C5      12 H12       124.61   116.28   -21.43
           5 C5       2 C2       4 C4       6 C6        106.94   106.94    -0.00
           5 C5       2 C2       4 C4      11 H11       106.94   128.30  -175.64
           9 H9       2 C2       4 C4      11 H11       128.29   128.30    -0.00
           4 C4       2 C2       5 C5       7 C7        106.94    98.71   -35.89
           4 C4       2 C2       5 C5      12 H12       106.94   116.28  -162.70
           9 H9       2 C2       5 C5      12 H12       124.61   116.28    21.46
           6 C6       3 C3       1 C1       8 H8        106.95   128.31  -175.67
           1 C1       3 C3       6 C6       4 C4        106.95   106.48    65.92
           1 C1       3 C3       6 C6       7 C7        106.95    98.69   -35.90
           1 C1       3 C3       6 C6      13 H13       106.95   116.27  -162.69
          10 H10      3 C3       6 C6      13 H13       124.60   116.27    21.47
           6 C6       4 C4       2 C2       9 H9        106.94   128.29   175.64
           2 C2       4 C4       6 C6       3 C3        106.94   106.48   -65.94
           2 C2       4 C4       6 C6       7 C7        106.94    98.70    35.88
           2 C2       4 C4       6 C6      13 H13       106.94   116.28   162.68
          11 H11      4 C4       6 C6      13 H13       124.61   116.28   -21.47
           2 C2       5 C5       1 C1       3 C3        106.46   106.94   -65.96
           2 C2       5 C5       1 C1       8 H8        106.46   124.61   109.94
           7 C7       5 C5       1 C1       8 H8         98.70   124.61  -148.23
           1 C1       5 C5       2 C2       4 C4        106.46   106.94    65.94
           1 C1       5 C5       2 C2       9 H9        106.46   124.61  -109.90
           7 C7       5 C5       2 C2       9 H9         98.71   124.61   148.27
           1 C1       5 C5       7 C7       6 C6         98.70    92.45   -54.14
           1 C1       5 C5       7 C7      14 H14        98.70   113.15    62.36
           1 C1       5 C5       7 C7      15 H15        98.70   113.15  -170.64
           2 C2       5 C5       7 C7       6 C6         98.71    92.45    54.13
           2 C2       5 C5       7 C7      14 H14        98.71   113.15   170.63
           2 C2       5 C5       7 C7      15 H15        98.71   113.15   -62.37
          12 H12      5 C5       7 C7      14 H14       117.65   113.15   -63.50
          12 H12      5 C5       7 C7      15 H15       117.65   113.15    63.50
           4 C4       6 C6       3 C3      10 H10       106.48   124.60  -109.92
           7 C7       6 C6       3 C3      10 H10        98.69   124.60   148.26
           3 C3       6 C6       4 C4      11 H11       106.48   124.61   109.91
           7 C7       6 C6       4 C4      11 H11        98.70   124.61  -148.28
           3 C3       6 C6       7 C7       5 C5         98.69    92.45    54.15
           3 C3       6 C6       7 C7      14 H14        98.69   113.15   -62.35
           3 C3       6 C6       7 C7      15 H15        98.69   113.15   170.66
           4 C4       6 C6       7 C7       5 C5         98.70    92.45   -54.14
           4 C4       6 C6       7 C7      14 H14        98.70   113.15  -170.64
           4 C4       6 C6       7 C7      15 H15        98.70   113.15    62.37
          13 H13      6 C6       7 C7      14 H14       117.64   113.15    63.50
          13 H13      6 C6       7 C7      15 H15       117.64   113.15   -63.50
           6 C6       7 C7       5 C5      12 H12        92.45   117.65  -180.00
           5 C5       7 C7       6 C6      13 H13        92.45   117.64   180.00
--
 
 
            Nuclear Potential Energy            288.14614719 au
 
--- Stop Module: gateway at Tue Nov 15 11:43:19 2022 /rc=_RC_ALL_IS_WELL_ ---
*** files: molcas.RICDLib xmldump
    saved to directory /scratch/4417492.1.multiway.q
--- Module gateway spent 2 minutes 27 seconds ---

--- Start Module: seward at Tue Nov 15 11:43:26 2022 ---
 
()()()()()()()()()()()()()()()()()()()()()()()()()()()()()()()()()()()()()()()()()()()()()()()()()()

                                              &SEWARD

                                   only a single process is used
                       available to each process: 2.0 GB of memory, 1 thread?
                                            pid: 164486
()()()()()()()()()()()()()()()()()()()()()()()()()()()()()()()()()()()()()()()()()()()()()()()()()()
 
               SEWARD will generate:
                  Multipole Moment integrals up to order  2
                  Kinetic Energy integrals
                  Nuclear Attraction integrals (point charge)
                  One-Electron Hamiltonian integrals
                  Velocity integrals
                  Orbital angular momentum around ( 2.3174  0.9634 -1.2750 )
                  Velocity quadrupole around ( 2.3174  0.9634 -1.2750 )
                  RI decomposed two-electron repulsion integrals stored Cholesky style
                   - acCD auxiliary basis
                   - CD Threshold:   0.10E-03
 
                   Integrals are discarded if absolute value <: 0.10E-13
                   Integral cutoff threshold is set to       <: 0.10E-15
 
            Nuclear Potential Energy            288.14614719 au
 
 
      Basis set specifications :
      Symmetry species         a  
      Basis functions           43
 
 
      Input file to MOLDEN was generated!
 
--- Stop Module: seward at Tue Nov 15 11:44:40 2022 /rc=_RC_ALL_IS_WELL_ ---
*** files: molcas.GssOrb molcas.guessorb.h5 molcas.guessorb.molden xmldump
    saved to directory /scratch/4417492.1.multiway.q
--- Module seward spent 1 minute 14 seconds ---

*** symbolic link created: INPORB -> molcas.GssOrb
--- Start Module: scf at Tue Nov 15 11:44:44 2022 ---
 
()()()()()()()()()()()()()()()()()()()()()()()()()()()()()()()()()()()()()()()()()()()()()()()()()()

                                                &SCF

                                   only a single process is used
                       available to each process: 2.0 GB of memory, 1 thread?
                                            pid: 164517
()()()()()()()()()()()()()()()()()()()()()()()()()()()()()()()()()()()()()()()()()()()()()()()()()()
 
++    Input section:
      --------------
 
      Header of the integral files:
      
       Integrals generated by Gateway/Seward, Tue Nov 15 11:44:24 2022
 
 
      Cartesian coordinates in Angstrom:
      -----------------------------------------------------
      No.  Label        X            Y            Z        
      -----------------------------------------------------
       1   C1        -0.00002087  -0.00000887   0.00001148
       2   C2         2.45267907  -0.00006902   0.00008937
       3   C3        -0.00002361  -0.00010193  -1.34928263
       4   C4         2.45272475  -0.00055294  -1.34918475
       5   C5         1.22631412   0.80053097   0.44589442
       6   C6         1.22635944   0.79966248  -1.79550018
       7   C7         1.22628125   1.87394670  -0.67491855
       8   H8        -0.67747753  -0.51872851   0.67406613
       9   H9         3.12978406  -0.51929590   0.67411433
      10   H10       -0.67728484  -0.51933951  -2.02310285
      11   H11        3.12983705  -0.52017418  -2.02283624
      12   H12        1.22624102   1.14929813   1.48285683
      13   H13        1.22630731   1.14796431  -2.83259863
      14   H14        0.32545739   2.49588790  -0.67510922
      15   H15        2.12702071   2.49604348  -0.67510538
      -----------------------------------------------------
      Nuclear repulsion energy =  288.14614719
--
 
++    Orbital specifications:
      -----------------------
 
      Symmetry species               1
                                     a
      Frozen orbitals                0
      Occupied orbitals             25
      Secondary orbitals            18
      Deleted orbitals               0
      Total number of orbitals      43
      Number of basis functions     43
--
 
      Molecular charge                           0.000
 
++    Optimization specifications:
      ----------------------------
 
      SCF Algorithm: LK-RI/DF
      The actual AO density is used
      Number of density matrices in core                5
      Maximum number of NDDO SCF iterations           400
      Maximum number of HF SCF iterations             400
      Threshold for SCF energy change            0.10E-08
      Threshold for density matrix               0.10E-03
      Threshold for Fock matrix                  0.15E-03
      Threshold for linear dependence            0.10E-08
      Threshold at which DIIS is turned on       0.15E+00
      Threshold at which QNR/C2DIIS is turned on 0.75E-01
      Threshold for Norm(delta) (QNR/C2DIIS)     0.20E-04
      DIIS extrapolation of the SCF procedure
      All orbitals punched on: SCFORB
--
 
      Input vectors read from INPORB
      Orbital file label: *Guess orbitals
 
 
++ Convergence information
                                   SCF        iterations: Energy and convergence statistics
 
Iter     Tot. SCF        One-elec.       Two-elec.     Energy      Max Dij or  Max Fij      DNorm      TNorm      AccCon     Time
         Energy          Energy          Energy        Change      Delta Norm                                                in Sec.
   1  -268.778427782  -919.258624464   362.334049494   0.00E+00    0.24E+00*   0.13E+00*    0.96E+01   0.11E+03   None         0.
   2  -269.130367950  -928.791468731   371.514953594  -0.35E+00*   0.54E-01*   0.27E-01*    0.97E+01   0.11E+03   EDIIS        0.
   3  -269.145528479  -927.286529220   369.994853554  -0.15E-01*   0.23E-01*   0.81E-02*    0.97E+01   0.11E+03   EDIIS        0.
   4  -269.146658995  -927.622329400   370.329523218  -0.11E-02*   0.66E-02*   0.19E-02*    0.97E+01   0.11E+03   c2DIIS       0.
   5  -269.146760190  -927.551880838   370.258973461  -0.10E-03*   0.24E-02*   0.94E-03*    0.97E+01   0.11E+03   QNRc2DIIS    0.
   6  -269.146771349  -927.561466384   370.268547848  -0.11E-04*   0.13E-02*   0.33E-03*    0.97E+01   0.11E+03   QNRc2DIIS    0.
   7  -269.146772971  -927.558777510   370.265857352  -0.16E-05*   0.83E-04*   0.32E-04     0.97E+01   0.11E+03   QNRc2DIIS    0.
   8  -269.146772991  -927.559548247   370.266628068  -0.20E-07*   0.30E-04*   0.63E-05     0.97E+01   0.11E+03   QNRc2DIIS    0.
   9  -269.146772991  -927.559542224   370.266622045  -0.56E-09    0.33E-05    0.13E-05     0.97E+01   0.11E+03   QNRc2DIIS    0.
 
       Convergence after  9 Macro Iterations
--
 
 *****************************************************************************************************************************
 *                                                                                                                           *
 *                                             SCF/KS-DFT Program, Final results                                             *
 *                                                                                                                           *
 *                                                                                                                           *
 *                                                                                                                           *
 *                                                       Final Results                                                       *
 *                                                                                                                           *
 *****************************************************************************************************************************
 
::    Total SCF energy                               -269.1467729913
      One-electron energy                            -927.5595422236
      Two-electron energy                             370.2666220450
      Nuclear repulsion energy                        288.1461471874
      Kinetic energy (interpolated)                   266.8635379995
      Virial theorem                                    1.0085558147
      Total spin, S(S+1)                                0.0000000000
      Total spin, S                                     0.0000000000
      Max non-diagonal density matrix element           0.0000033246
      Max non-diagonal Fock matrix element              0.0000003198
 
 
      All orbitals with orbital energies smaller than  E(LUMO)+0.5 are printed
 
++    Molecular orbitals:
      -------------------
 
      Title: SCF orbitals

      Molecular orbitals for symmetry species 1: a  
 
          Orbital            1         2         3         4         5         6         7         8         9        10    
          Energy          -11.4261  -11.4261  -11.4237  -11.4236  -11.4222  -11.4222  -11.4074   -1.2973   -1.1170   -1.0600
          Occ. No.          2.0000    2.0000    2.0000    2.0000    2.0000    2.0000    2.0000    2.0000    2.0000    2.0000
 
        1 C1     1s         0.0615    0.0626    0.4630    0.5296   -0.4424   -0.5493    0.0009   -0.0344    0.0371    0.0145
        2 C1     2s         0.0000   -0.0001    0.0008    0.0008   -0.0009   -0.0010   -0.0001    0.1655   -0.3337   -0.1764
        3 C1     2px        0.0000   -0.0001    0.0002    0.0001   -0.0002   -0.0001   -0.0001    0.0464   -0.0391   -0.0733
        4 C1     2py        0.0001   -0.0000    0.0001    0.0001   -0.0000   -0.0001   -0.0001    0.0334   -0.0174   -0.0471
        5 C1     2pz       -0.0001    0.0000   -0.0003   -0.0004    0.0002    0.0003    0.0000   -0.0505    0.1237   -0.0484
        6 C2     1s         0.0616    0.0628   -0.5330    0.4562    0.5531   -0.4407    0.0009   -0.0343   -0.0371    0.0145
        7 C2     2s         0.0000   -0.0001   -0.0009    0.0007    0.0011   -0.0008   -0.0001    0.1655    0.3339   -0.1761
        8 C2     2px       -0.0000    0.0001    0.0002   -0.0001   -0.0002    0.0001    0.0001   -0.0464   -0.0391    0.0732
        9 C2     2py        0.0001   -0.0000   -0.0001    0.0001    0.0001   -0.0001   -0.0001    0.0334    0.0174   -0.0471
       10 C2     2pz       -0.0001    0.0000    0.0004   -0.0003   -0.0003    0.0002    0.0000   -0.0504   -0.1237   -0.0484
       11 C3     1s        -0.0381    0.0793    0.4628    0.5292    0.4426    0.5495    0.0009   -0.0344    0.0371   -0.0146
       12 C3     2s        -0.0000   -0.0001    0.0008    0.0008    0.0009    0.0010   -0.0001    0.1656   -0.3338    0.1772
       13 C3     2px       -0.0001   -0.0000    0.0002    0.0001    0.0002    0.0001   -0.0001    0.0464   -0.0391    0.0733
       14 C3     2py       -0.0001    0.0000    0.0001    0.0001    0.0000    0.0001   -0.0001    0.0334   -0.0174    0.0471
       15 C3     2pz       -0.0001    0.0000    0.0003    0.0004    0.0002    0.0003   -0.0000    0.0504   -0.1236   -0.0481
       16 C4     1s        -0.0382    0.0797   -0.5355    0.4585   -0.5503    0.4386    0.0009   -0.0343   -0.0371   -0.0146
       17 C4     2s        -0.0000   -0.0001   -0.0009    0.0007   -0.0011    0.0008   -0.0001    0.1655    0.3339    0.1773
       18 C4     2px        0.0001    0.0000    0.0002   -0.0001    0.0002   -0.0001    0.0001   -0.0464   -0.0391   -0.0732
       19 C4     2py       -0.0001    0.0000   -0.0001    0.0001   -0.0001    0.0001   -0.0001    0.0334    0.0174    0.0471
       20 C4     2pz       -0.0001    0.0000   -0.0004    0.0003   -0.0003    0.0002   -0.0000    0.0504    0.1237   -0.0480
       21 C5     1s         0.8089    0.5745    0.0074   -0.1015   -0.0081    0.0712   -0.0133   -0.0389   -0.0000    0.0310
       22 C5     2s         0.0016    0.0010    0.0000   -0.0003   -0.0000    0.0001   -0.0002    0.2431    0.0001   -0.4466
       23 C5     2px       -0.0000   -0.0000    0.0000    0.0000    0.0001    0.0000    0.0000   -0.0000    0.1029    0.0001
       24 C5     2py       -0.0002   -0.0001   -0.0000    0.0000   -0.0000    0.0001   -0.0000   -0.0172   -0.0000    0.0425
       25 C5     2pz       -0.0005   -0.0001   -0.0000    0.0002   -0.0000    0.0001   -0.0000   -0.0813   -0.0000    0.0476
       26 C6     1s        -0.5789    0.8057    0.0077   -0.1020    0.0078   -0.0712   -0.0133   -0.0389    0.0000   -0.0310
       27 C6     2s        -0.0012    0.0015    0.0000   -0.0003    0.0000   -0.0001   -0.0002    0.2430   -0.0001    0.4462
       28 C6     2px        0.0000   -0.0000    0.0000    0.0000   -0.0001   -0.0000    0.0000   -0.0001    0.1029   -0.0001
       29 C6     2py        0.0001   -0.0002   -0.0000    0.0000    0.0000   -0.0001   -0.0000   -0.0172   -0.0000   -0.0430
       30 C6     2pz       -0.0004    0.0003    0.0000   -0.0002   -0.0000    0.0001    0.0000    0.0813   -0.0000    0.0474
       31 C7     1s         0.0030    0.0179    0.0003   -0.0045   -0.0000    0.0000    0.9998   -0.0339    0.0000    0.0001
       32 C7     2s        -0.0000   -0.0001    0.0000   -0.0001   -0.0000    0.0000    0.0020    0.2019   -0.0000   -0.0012
       33 C7     2px       -0.0000    0.0000    0.0003    0.0000   -0.0000    0.0000   -0.0000   -0.0000    0.0075    0.0000
       34 C7     2py        0.0000    0.0000   -0.0000    0.0002    0.0000   -0.0000   -0.0003   -0.0723    0.0000    0.0002
       35 C7     2pz        0.0000   -0.0000   -0.0000    0.0000   -0.0000    0.0000    0.0000    0.0001    0.0000   -0.1068
       36 H8     1s         0.0000   -0.0001    0.0001    0.0001   -0.0001   -0.0002   -0.0000    0.0167   -0.0570   -0.0328
       37 H9     1s         0.0000   -0.0001   -0.0001    0.0001    0.0002   -0.0001   -0.0000    0.0167    0.0570   -0.0328
       38 H10    1s        -0.0000   -0.0001    0.0001    0.0001    0.0001    0.0002   -0.0000    0.0167   -0.0570    0.0330
       39 H11    1s        -0.0000   -0.0001   -0.0001    0.0001   -0.0002    0.0001   -0.0000    0.0167    0.0570    0.0330
       40 H12    1s         0.0002    0.0000    0.0000   -0.0001   -0.0000    0.0000   -0.0000    0.0209    0.0000   -0.0809
       41 H13    1s        -0.0002    0.0001    0.0000   -0.0001    0.0000   -0.0000   -0.0000    0.0209   -0.0000    0.0808
       42 H14    1s        -0.0000   -0.0001    0.0000   -0.0001   -0.0000    0.0000    0.0000    0.0067    0.0031   -0.0002
       43 H15    1s        -0.0000   -0.0001   -0.0000   -0.0001   -0.0000    0.0000    0.0000    0.0067   -0.0031   -0.0002
 
          Orbital           11        12        13        14        15        16        17        18        19        20    
          Energy           -1.0383   -0.8490   -0.8370   -0.7788   -0.7609   -0.7277   -0.6622   -0.6241   -0.6139   -0.6092
          Occ. No.          2.0000    2.0000    2.0000    2.0000    2.0000    2.0000    2.0000    2.0000    2.0000    2.0000
 
        1 C1     1s         0.0199   -0.0066    0.0153    0.0097    0.0094    0.0043   -0.0069   -0.0010   -0.0005   -0.0046
        2 C1     2s        -0.2333    0.1147   -0.3172    0.1027   -0.2411    0.0726    0.0009    0.0102   -0.0308    0.0057
        3 C1     2px        0.0094   -0.1171    0.0009   -0.1242    0.0791   -0.1840    0.0371    0.2010   -0.2187   -0.0466
        4 C1     2py        0.0079   -0.0665    0.0033   -0.0768    0.0723   -0.1766   -0.0036   -0.0223   -0.1205    0.0701
        5 C1     2pz        0.0905   -0.1206   -0.1407    0.1509   -0.1210    0.0847   -0.3640   -0.0535    0.0286   -0.3362
        6 C2     1s         0.0199   -0.0065   -0.0153    0.0097    0.0094   -0.0043    0.0069   -0.0010   -0.0005   -0.0046
        7 C2     2s        -0.2331    0.1140    0.3175    0.1026   -0.2410   -0.0726   -0.0008    0.0101   -0.0308    0.0057
        8 C2     2px       -0.0094    0.1171    0.0011    0.1242   -0.0790   -0.1840    0.0370   -0.2009    0.2186    0.0468
        9 C2     2py        0.0080   -0.0666   -0.0035   -0.0768    0.0723    0.1767    0.0036   -0.0223   -0.1205    0.0700
       10 C2     2pz        0.0904   -0.1208    0.1404    0.1508   -0.1209   -0.0848    0.3641   -0.0535    0.0286   -0.3360
       11 C3     1s         0.0198   -0.0065   -0.0153    0.0096   -0.0094    0.0043   -0.0069   -0.0010    0.0005   -0.0046
       12 C3     2s        -0.2324    0.1141    0.3174    0.1029    0.2410    0.0726    0.0009    0.0103    0.0307    0.0057
       13 C3     2px        0.0097   -0.1171   -0.0011   -0.1243   -0.0789   -0.1841    0.0370    0.2019    0.2176   -0.0471
       14 C3     2py        0.0081   -0.0665   -0.0035   -0.0769   -0.0723   -0.1767   -0.0035   -0.0218    0.1207    0.0700
       15 C3     2pz       -0.0907    0.1209   -0.1405   -0.1510   -0.1207   -0.0847    0.3640    0.0536    0.0285    0.3361
       16 C4     1s         0.0198   -0.0066    0.0153    0.0096   -0.0094   -0.0043    0.0069   -0.0010    0.0005   -0.0046
       17 C4     2s        -0.2323    0.1148   -0.3172    0.1029    0.2410   -0.0726   -0.0009    0.0103    0.0307    0.0057
       18 C4     2px       -0.0097    0.1171   -0.0008    0.1243    0.0789   -0.1840    0.0371   -0.2020   -0.2174    0.0468
       19 C4     2py        0.0081   -0.0665    0.0034   -0.0770   -0.0724    0.1767    0.0033   -0.0217    0.1207    0.0703
       20 C4     2pz       -0.0907    0.1206    0.1408   -0.1509   -0.1207    0.0846   -0.3641    0.0536    0.0284    0.3360
       21 C5     1s        -0.0089    0.0155    0.0000    0.0089   -0.0070    0.0000    0.0000   -0.0002   -0.0003   -0.0007
       22 C5     2s         0.1209   -0.3129   -0.0003    0.1382    0.2093    0.0000    0.0000   -0.0395   -0.0946    0.0302
       23 C5     2px        0.0000   -0.0002    0.2081   -0.0000   -0.0000    0.1935    0.1586   -0.0001    0.0001   -0.0001
       24 C5     2py        0.1169    0.0746    0.0001    0.0580    0.1809    0.0000   -0.0001   -0.2624    0.2567    0.1804
       25 C5     2pz       -0.0621   -0.0840   -0.0001    0.2701    0.0695   -0.0000   -0.0000    0.1443    0.3772    0.2859
       26 C6     1s        -0.0090    0.0155    0.0000    0.0089    0.0070    0.0000    0.0000   -0.0002    0.0003   -0.0007
       27 C6     2s         0.1228   -0.3128   -0.0004    0.1379   -0.2094   -0.0000    0.0001   -0.0391    0.0949    0.0302
       28 C6     2px        0.0000    0.0003   -0.2082   -0.0000   -0.0000    0.1935    0.1586    0.0000   -0.0001    0.0002
       29 C6     2py        0.1167    0.0746    0.0001    0.0576   -0.1809   -0.0000    0.0000   -0.2635   -0.2549    0.1806
       30 C6     2pz        0.0622    0.0840    0.0001   -0.2701    0.0699   -0.0000   -0.0001   -0.1416    0.3780   -0.2862
       31 C7     1s        -0.0342   -0.0125   -0.0000    0.0091   -0.0000    0.0000    0.0000    0.0016   -0.0000    0.0009
       32 C7     2s         0.5127    0.3769    0.0004    0.0925   -0.0001    0.0000    0.0000    0.0197   -0.0001   -0.0996
       33 C7     2px       -0.0000   -0.0000    0.0000   -0.0000   -0.0000    0.2853    0.2719   -0.0001    0.0001   -0.0001
       34 C7     2py       -0.0658    0.1562    0.0002    0.1696   -0.0001    0.0001    0.0000    0.5388   -0.0015    0.0353
       35 C7     2pz       -0.0002   -0.0001    0.0000    0.0001    0.1907    0.0000   -0.0000   -0.0006   -0.0409   -0.0000
       36 H8     1s        -0.0473    0.0494   -0.1463    0.1140   -0.1715    0.1423   -0.1317   -0.0887    0.1240   -0.1351
       37 H9     1s        -0.0472    0.0491    0.1464    0.1139   -0.1714   -0.1424    0.1317   -0.0886    0.1239   -0.1349
       38 H10    1s        -0.0471    0.0492    0.1464    0.1141    0.1713    0.1424   -0.1316   -0.0891   -0.1236   -0.1349
       39 H11    1s        -0.0471    0.0495   -0.1463    0.1141    0.1714   -0.1424    0.1317   -0.0892   -0.1235   -0.1350
       40 H12    1s         0.0223   -0.1247   -0.0001    0.1595    0.1377   -0.0000   -0.0000    0.0120    0.2465    0.2309
       41 H13    1s         0.0227   -0.1247   -0.0002    0.1594   -0.1379   -0.0000    0.0001    0.0104   -0.2464    0.2311
       42 H14    1s         0.0992    0.1501    0.0002    0.0756   -0.0001   -0.1166   -0.1336    0.2122   -0.0007   -0.0340
       43 H15    1s         0.0992    0.1501    0.0002    0.0756   -0.0001    0.1166    0.1336    0.2121   -0.0005   -0.0341
 
          Orbital           21        22        23        24        25        26        27        28        29        30    
          Energy           -0.5800   -0.5666   -0.5613   -0.4589   -0.4199    0.0768    0.1521    0.3524    0.3774    0.3853
          Occ. No.          2.0000    2.0000    2.0000    2.0000    2.0000    0.0000    0.0000    0.0000    0.0000    0.0000
 
        1 C1     1s         0.0037   -0.0005   -0.0002    0.0048    0.0031   -0.0098   -0.0104    0.0336   -0.0078    0.0549
        2 C1     2s         0.0659   -0.0256   -0.0467    0.0842    0.0504   -0.1252   -0.1199    0.2903   -0.0059    0.4318
        3 C1     2px        0.1615   -0.2623    0.1229   -0.1104    0.3375    0.2575   -0.4719    0.3586    0.0309    0.2653
        4 C1     2py        0.1193   -0.2225    0.0358    0.3882   -0.3491   -0.5279    0.4620    0.1192    0.1613    0.2912
        5 C1     2pz        0.1456    0.0306   -0.0165    0.0868    0.0281   -0.0448   -0.0393    0.1549    0.2530    0.1940
        6 C2     1s        -0.0037    0.0005   -0.0002    0.0048   -0.0031   -0.0098    0.0104    0.0337   -0.0082   -0.0548
        7 C2     2s        -0.0659    0.0256   -0.0468    0.0843   -0.0503   -0.1255    0.1196    0.2910   -0.0085   -0.4315
        8 C2     2px        0.1614   -0.2627   -0.1221    0.1107    0.3375   -0.2576   -0.4720   -0.3592   -0.0290    0.2646
        9 C2     2py       -0.1194    0.2228    0.0352    0.3883    0.3488   -0.5277   -0.4620    0.1196    0.1592   -0.2922
       10 C2     2pz       -0.1458   -0.0309   -0.0165    0.0868   -0.0281   -0.0448    0.0391    0.1553    0.2516   -0.1958
       11 C3     1s         0.0037    0.0005    0.0002    0.0048    0.0031    0.0098    0.0103    0.0337    0.0079    0.0547
       12 C3     2s         0.0659    0.0252    0.0467    0.0844    0.0502    0.1255    0.1195    0.2898    0.0059    0.4304
       13 C3     2px        0.1631    0.2613   -0.1233   -0.1103    0.3375   -0.2574    0.4717    0.3586   -0.0325    0.2652
       14 C3     2py        0.1206    0.2218   -0.0355    0.3881   -0.3492    0.5278   -0.4621    0.1172   -0.1603    0.2916
       15 C3     2pz       -0.1454    0.0317   -0.0168   -0.0869   -0.0280   -0.0451   -0.0389   -0.1528    0.2532   -0.1956
       16 C4     1s        -0.0038   -0.0005    0.0002    0.0048   -0.0031    0.0098   -0.0104    0.0338    0.0074   -0.0547
       17 C4     2s        -0.0659   -0.0251    0.0468    0.0843   -0.0503    0.1256   -0.1196    0.2908    0.0019   -0.4305
       18 C4     2px        0.1631    0.2617    0.1224    0.1105    0.3376    0.2575    0.4720   -0.3589    0.0347    0.2644
       19 C4     2py       -0.1207   -0.2219   -0.0348    0.3883    0.3489    0.5277    0.4620    0.1181   -0.1627   -0.2902
       20 C4     2pz        0.1456   -0.0314   -0.0167   -0.0870    0.0279   -0.0453    0.0388   -0.1533    0.2549    0.1938
       21 C5     1s         0.0000   -0.0000   -0.0030   -0.0027    0.0000   -0.0031    0.0000   -0.0494   -0.0789    0.0003
       22 C5     2s         0.0000    0.0000   -0.0053   -0.0438    0.0000   -0.0164    0.0001   -0.4187   -0.6859    0.0026
       23 C5     2px       -0.2674    0.4180   -0.0006   -0.0001   -0.0624    0.0001   -0.0314   -0.0007    0.0028    0.8033
       24 C5     2py       -0.0000   -0.0005   -0.3193   -0.2156    0.0000   -0.0484   -0.0001    0.7646   -0.3688    0.0025
       25 C5     2pz        0.0000    0.0006    0.3483   -0.0068   -0.0000    0.0156   -0.0000   -0.1265    0.4504   -0.0022
       26 C6     1s        -0.0000   -0.0000    0.0030   -0.0027    0.0000    0.0031    0.0000   -0.0487    0.0796   -0.0003
       27 C6     2s        -0.0001   -0.0001    0.0054   -0.0439    0.0000    0.0163    0.0001   -0.4129    0.6922   -0.0025
       28 C6     2px       -0.2700   -0.4163    0.0007   -0.0000   -0.0624   -0.0000    0.0313   -0.0009    0.0035    0.8018
       29 C6     2py        0.0001    0.0006    0.3196   -0.2159    0.0001    0.0486   -0.0001    0.7677    0.3628   -0.0008
       30 C6     2pz       -0.0001    0.0003    0.3485    0.0066    0.0000    0.0156    0.0000    0.1300    0.4501   -0.0014
       31 C7     1s        -0.0000   -0.0000    0.0000   -0.0078    0.0000   -0.0000    0.0000   -0.0804    0.0003   -0.0002
       32 C7     2s        -0.0000   -0.0001    0.0000   -0.1690    0.0001   -0.0001    0.0001   -0.6630    0.0020   -0.0014
       33 C7     2px        0.5364   -0.0017   -0.0000    0.0000   -0.1262    0.0000   -0.0000   -0.0002    0.0009    0.2395
       34 C7     2py        0.0001    0.0001   -0.0004    0.2485   -0.0001    0.0002    0.0000    0.3293   -0.0002    0.0007
       35 C7     2pz       -0.0000   -0.0008   -0.5312    0.0002   -0.0000    0.3498   -0.0000    0.0041    0.9800   -0.0040
       36 H8     1s        -0.0087    0.2024   -0.1078   -0.0055    0.0035    0.0443    0.0367    0.1224   -0.1810    0.0822
       37 H9     1s         0.0086   -0.2029   -0.1072   -0.0055   -0.0036    0.0445   -0.0365    0.1227   -0.1821   -0.0801
       38 H10    1s        -0.0099   -0.2025    0.1080   -0.0055    0.0036   -0.0444   -0.0366    0.1242    0.1809    0.0814
       39 H11    1s         0.0099    0.2027    0.1074   -0.0056   -0.0036   -0.0444    0.0366    0.1243    0.1805   -0.0820
       40 H12    1s         0.0000    0.0003    0.1752   -0.1064    0.0000    0.0422    0.0000    0.0147   -0.1795    0.0008
       41 H13    1s         0.0001   -0.0001   -0.1753   -0.1062    0.0000   -0.0423   -0.0000    0.0163    0.1787   -0.0008
       42 H14    1s        -0.3246    0.0011   -0.0000    0.0773    0.0915   -0.0000   -0.0000   -0.0300    0.0016    0.3686
       43 H15    1s         0.3246   -0.0010   -0.0001    0.0774   -0.0915    0.0000    0.0000   -0.0293   -0.0013   -0.3684
 
          Orbital           31        32        33        34        35    
          Energy            0.4432    0.4673    0.4681    0.4862    0.5223
          Occ. No.          0.0000    0.0000    0.0000    0.0000    0.0000
 
        1 C1     1s        -0.0611   -0.0286    0.0912   -0.0866   -0.0532
        2 C1     2s        -0.4580   -0.2640    0.7880   -0.7606   -0.3963
        3 C1     2px        0.0956   -0.1469    0.0076   -0.1603    0.3124
        4 C1     2py        0.1150   -0.1124    0.1635    0.0959    0.2176
        5 C1     2pz       -0.2251   -0.1232    0.0737   -0.0715   -0.2976
        6 C2     1s        -0.0610   -0.0231   -0.0931   -0.0862    0.0533
        7 C2     2s        -0.4568   -0.2168   -0.8054   -0.7574    0.3968
        8 C2     2px       -0.0957    0.1457    0.0170    0.1610    0.3121
        9 C2     2py        0.1156   -0.1020   -0.1691    0.0961   -0.2180
       10 C2     2pz       -0.2249   -0.1184   -0.0812   -0.0713    0.2978
       11 C3     1s        -0.0609   -0.0228   -0.0929    0.0868   -0.0533
       12 C3     2s        -0.4563   -0.2134   -0.8035    0.7625   -0.3972
       13 C3     2px        0.0957   -0.1449   -0.0171    0.1616    0.3120
       14 C3     2py        0.1155   -0.1023   -0.1703   -0.0952    0.2179
       15 C3     2pz        0.2249    0.1170    0.0814   -0.0723    0.2979
       16 C4     1s        -0.0610   -0.0281    0.0916    0.0864    0.0532
       17 C4     2s        -0.4568   -0.2600    0.7914    0.7595    0.3967
       18 C4     2px       -0.0958    0.1452   -0.0092   -0.1614    0.3122
       19 C4     2py        0.1155   -0.1120    0.1635   -0.0959   -0.2179
       20 C4     2pz        0.2246    0.1217   -0.0741   -0.0724   -0.2976
       21 C5     1s        -0.0385    0.1255    0.0038    0.0585    0.0000
       22 C5     2s        -0.2463    1.0910    0.0330    0.5617    0.0000
       23 C5     2px       -0.0006   -0.0207    0.6811   -0.0009    0.1261
       24 C5     2py       -0.2177    0.2065    0.0047   -0.5084    0.0004
       25 C5     2pz       -0.4030   -0.2545   -0.0073    0.0576   -0.0001
       26 C6     1s        -0.0385    0.1249    0.0036   -0.0593    0.0000
       27 C6     2s        -0.2470    1.0855    0.0313   -0.5679    0.0004
       28 C6     2px        0.0000    0.0198   -0.6829    0.0014    0.1255
       29 C6     2py       -0.2170    0.2088    0.0071    0.5077   -0.0002
       30 C6     2pz        0.4030    0.2535    0.0081    0.0554    0.0000
       31 C7     1s        -0.0688   -0.0948   -0.0028    0.0003   -0.0000
       32 C7     2s        -0.5433   -0.8829   -0.0262    0.0028   -0.0001
       33 C7     2px       -0.0001   -0.0002   -0.0001   -0.0000   -0.4164
       34 C7     2py       -0.1213    0.7308    0.0215   -0.0018    0.0002
       35 C7     2pz        0.0002   -0.0009    0.0009    0.2371   -0.0002
       36 H8     1s         0.4899    0.1041   -0.3954    0.4196    0.6986
       37 H9     1s         0.4895    0.0811    0.4025    0.4173   -0.6989
       38 H10    1s         0.4890    0.0780    0.4007   -0.4200    0.6992
       39 H11    1s         0.4893    0.1018   -0.3961   -0.4190   -0.6988
       40 H12    1s         0.6030   -0.3762   -0.0114   -0.2215   -0.0000
       41 H13    1s         0.6031   -0.3755   -0.0102    0.2230   -0.0001
       42 H14    1s         0.3287    0.0061    0.0001   -0.0002   -0.3675
       43 H15    1s         0.3291    0.0065    0.0005   -0.0003    0.3673
--
 
 
++    Molecular charges:
      ------------------
 
      Mulliken charges per centre and basis function type
      ---------------------------------------------------
 
                C1      C2      C3      C4      C5      C6      C7      H8      H9      H10     H11     H12   
      1s       2.0002  2.0002  2.0002  2.0002  2.0002  2.0002  2.0002  0.7652  0.7652  0.7652  0.7652  0.7735
      2s       1.1643  1.1643  1.1642  1.1643  1.1864  1.1864  1.2497  0.0000  0.0000  0.0000  0.0000  0.0000
      2px      1.0277  1.0277  1.0278  1.0277  0.9483  0.9483  1.2041  0.0000  0.0000  0.0000  0.0000  0.0000
      2pz      1.0296  1.0296  1.0296  1.0295  1.1296  1.1296  0.8882  0.0000  0.0000  0.0000  0.0000  0.0000
      2py      1.0230  1.0230  1.0231  1.0231  0.9677  0.9677  1.0495  0.0000  0.0000  0.0000  0.0000  0.0000
      Total    6.2447  6.2448  6.2448  6.2448  6.2322  6.2322  6.3917  0.7652  0.7652  0.7652  0.7652  0.7735
 
      N-E     -0.2447 -0.2448 -0.2448 -0.2448 -0.2322 -0.2322 -0.3917  0.2348  0.2348  0.2348  0.2348  0.2265
 
                H13     H14     H15   
      1s       0.7735  0.7785  0.7786
      2s       0.0000  0.0000  0.0000
      2px      0.0000  0.0000  0.0000
      2pz      0.0000  0.0000  0.0000
      2py      0.0000  0.0000  0.0000
      Total    0.7735  0.7785  0.7786
 
      N-E      0.2265  0.2215  0.2214
 
      Total electronic charge=   50.000000
 
      Total            charge=   -0.000000
--
 
 
      Input file to MOLDEN was generated!
 
 
++    Static properties:
      ------------------
 
 
      LoProp Charges per center
 

                   C1       C2       C3       C4       C5       C6       C7       H8       H9       H10   
      Nuclear      6.0000   6.0000   6.0000   6.0000   6.0000   6.0000   6.0000   1.0000   1.0000   1.0000
      Electronic  -6.1681  -6.1681  -6.1681  -6.1681  -6.1345  -6.1345  -6.2442  -0.8465  -0.8465  -0.8465
 
      Total       -0.1681  -0.1681  -0.1681  -0.1681  -0.1345  -0.1345  -0.2442   0.1535   0.1535   0.1535
 

                   H11      H12      H13      H14      H15   
      Nuclear      1.0000   1.0000   1.0000   1.0000   1.0000
      Electronic  -0.8465  -0.8549  -0.8549  -0.8594  -0.8594
 
      Total        0.1535   0.1451   0.1451   0.1406   0.1406
--
 
 
++    Natural Bond Order analysis
      ---------------------------
      Based on LoProp computed density
      -------------------------------------------------------------------------------------
      Atom A       Atom B       Bond Order
      -------------------------------------------------------------------------------------
      NBO located      0.996 non-bonded electrons on atom C1        
      The remaining   28.716 electrons are to be considered as diffuse
--
 
 
++    Molecular properties:
      ---------------------
 
      Charge (e):
                      =   -0.0000
      Dipole Moment (Debye):
      Origin of the operator (Ang)=    0.0000    0.0000    0.0000
                   X= -5.4813E-04               Y=  1.9291E-01               Z=  3.7339E-04           Total=  1.9291E-01
      Quadrupole Moment (Debye*Ang):
      Origin of the operator (Ang)=    1.2263    0.5098   -0.6747
                  XX= -5.4381E+01              XY= -1.9980E-03              XZ= -4.3552E-04              YY= -5.4735E+01
                  YZ=  1.8354E-03              ZZ= -5.0533E+01
      In traceless form (Debye*Ang)
                  XX= -1.7476E+00              XY= -2.9970E-03              XZ= -6.5328E-04              YY= -2.2777E+00
                  YZ=  2.7530E-03              ZZ=  4.0253E+00
--
 
 
      Input file to MOLDEN was generated!
 
 ###############################################################################
 ###############################################################################
 ###                                                                         ###
 ###                                                                         ###
 ###    WARNING: RunFile label nBas                                          ###
 ###    was used       81 times                                              ###
 ###                                                                         ###
 ###                                                                         ###
 ###############################################################################
 ###############################################################################
--- Stop Module: scf at Tue Nov 15 11:45:28 2022 /rc=_RC_ALL_IS_WELL_ ---
*** files: molcas.LprOrb molcas.LoProp.molden molcas.scf.molden molcas.ScfOrb molcas.scf.h5 xmldump
    saved to directory /scratch/4417492.1.multiway.q
--- Module scf spent 43 seconds ---

*** symbolic link created: INPORB -> molcas.ScfOrb
--- Start Module: rasscf at Tue Nov 15 11:45:28 2022 ---
 
()()()()()()()()()()()()()()()()()()()()()()()()()()()()()()()()()()()()()()()()()()()()()()()()()()

                                              &RASSCF

                                   only a single process is used
                       available to each process: 2.0 GB of memory, 1 thread?
                                            pid: 164538
()()()()()()()()()()()()()()()()()()()()()()()()()()()()()()()()()()()()()()()()()()()()()()()()()()
 
 ###############################################################################
 ###############################################################################
 ###                                                                         ###
 ###                                                                         ###
 ###    WARNING: CHARGE and NACTEL are only compatible if INACTIVE           ###
 ###    is not given and the symmetry group is C1. Hence the                 ###
 ###    CHARGE command will be ignored.                                      ###
 ###                                                                         ###
 ###                                                                         ###
 ###############################################################################
 ###############################################################################
 
      Header of the ONEINT file:
      --------------------------
      
      Integrals generated by Gateway/Seward, Tue Nov 15 11:44:24 2022
 
 
      OrdInt status: non-squared
 
 
      Cartesian coordinates in Angstrom:
      -----------------------------------------------------
      No.  Label        X            Y            Z        
      -----------------------------------------------------
       1   C1        -0.00002087  -0.00000887   0.00001148
       2   C2         2.45267907  -0.00006902   0.00008937
       3   C3        -0.00002361  -0.00010193  -1.34928263
       4   C4         2.45272475  -0.00055294  -1.34918475
       5   C5         1.22631412   0.80053097   0.44589442
       6   C6         1.22635944   0.79966248  -1.79550018
       7   C7         1.22628125   1.87394670  -0.67491855
       8   H8        -0.67747753  -0.51872851   0.67406613
       9   H9         3.12978406  -0.51929590   0.67411433
      10   H10       -0.67728484  -0.51933951  -2.02310285
      11   H11        3.12983705  -0.52017418  -2.02283624
      12   H12        1.22624102   1.14929813   1.48285683
      13   H13        1.22630731   1.14796431  -2.83259863
      14   H14        0.32545739   2.49588790  -0.67510922
      15   H15        2.12702071   2.49604348  -0.67510538
      -----------------------------------------------------
      Nuclear repulsion energy =  288.14614719
 
++    Wave function specifications:
      -----------------------------
 
      Number of closed shell electrons          42
      Number of electrons in active shells       8
      Max number of holes in RAS1 space          0
      Max nr of electrons in RAS3 space          0
      Number of inactive orbitals               21
      Number of active orbitals                  8
      Number of secondary orbitals              14
      Spin quantum number                      0.0
      State symmetry                             1
--
 
++    Orbital specifications:
      -----------------------
 
      Symmetry species                           1
                                                 a
      Frozen orbitals                            0
      Inactive orbitals                         21
      Active orbitals                            8
      RAS1 orbitals                              0
      RAS2 orbitals                              8
      RAS3 orbitals                              0
      Secondary orbitals                        14
      Deleted orbitals                           0
      Number of basis functions                 43
--
 
++    CI expansion specifications:
      ----------------------------
 
      Number of CSFs                          1764
      Number of determinants                  2485
      Number of root(s) required                 1
      Root chosen for geometry opt.              1
      CI root used                               1
         
      highest root included in the CI            1
      max. size of the explicit Hamiltonian    200
--
 
++    Optimization specifications:
      ----------------------------
 
      RASSCF algorithm: LK RI/DF
      Maximum number of macro iterations       200
      Maximum number of SX iterations          100
      Threshold for RASSCF energy            0.100E-07
      Threshold for max MO rotation          0.100E+00
      Threshold for max BLB element          0.100E-03
      Level shift parameter                  0.500E+00
      Make Quasi-Newton update
--
 
      Orbitals from runfile: scf orbitals
      The MO-coefficients are taken from scf orbitals on runfile
 
      Total molecular charge    0.00
 
      ************************************************************************************************************************
      *                                                                                                                      *
      *                                            Wave function control section                                             *
      *                                                                                                                      *
      ************************************************************************************************************************
 
 
                                         RASSCF iterations: Energy and convergence statistics
                                         ----------------------------------------------------
 
      Iter CI   SX   CI       RASSCF       Energy    max ROT     max BLB   max BLB  Level Ln srch  Step   QN   Walltime
          iter iter root      energy       change     param      element    value   shift minimum  type update hh:mm:ss
 Nr of preliminary CI iterations:   3
        1   1   13    1  -269.20488049    0.00E+00   0.47E+00*  18  24 1 -0.19E-01*  0.00   0.00    SX    NO    0:00:04
        2   3    9    1  -269.22266641   -0.18E-01* -0.25E+00*  18  24 1 -0.67E-02*  0.00   0.00    SX    NO    0:00:00
        3   3    8    1  -269.22524271   -0.26E-02*  0.15E+00*  18  24 1 -0.24E-02*  0.00   0.00    SX    NO    0:00:00
        4   3    7    1  -269.22574899   -0.51E-03* -0.15E+00*  18  24 1 -0.93E-03*  0.00   0.00    SX    NO    0:00:00
        5   4    8    1  -269.22634314   -0.59E-03* -0.48E+00*  18  22 1  0.16E-02*  0.00   0.00    SX    NO    0:00:00
        6   5   19    1  -269.23264164   -0.63E-02* -0.38E+00*  18  22 1  0.53E-02*  0.00   0.00    SX    NO    0:00:00
        7   4    8    1  -269.24202268   -0.94E-02* -0.22E+00*  28  32 1 -0.46E-02*  0.00   1.45    QN   YES    0:00:00
        8   3    8    1  -269.24450024   -0.25E-02*  0.25E-01   18  28 1 -0.26E-02*  0.00   0.90    QN   YES    0:00:00
        9   2    7    1  -269.24485436   -0.35E-03*  0.33E-01   18  22 1 -0.14E-02*  0.00   2.50    LS   YES    0:00:00
       10   3    7    1  -269.24508153   -0.23E-03* -0.35E-01   22  32 1 -0.18E-02*  0.00   1.34    QN   YES    0:00:00
       11   3    7    1  -269.24525394   -0.17E-03* -0.18E-01   18  28 1  0.14E-02*  0.00   1.55    LS   YES    0:00:00
       12   3    6    1  -269.24527889   -0.25E-04* -0.79E-02   18  28 1  0.14E-02*  0.00   1.08    QN   YES    0:00:00
       13   3    6    1  -269.24529327   -0.14E-04* -0.53E-02   18  28 1  0.48E-03*  0.00   1.69    LS   YES    0:00:00
       14   3    6    1  -269.24529610   -0.28E-05*  0.27E-02   13  28 1  0.26E-03*  0.00   1.01    QN   YES    0:00:00
       15   3    6    1  -269.24529766   -0.16E-05*  0.19E-02   22  33 1 -0.15E-03*  0.00   1.69    LS   YES    0:00:00
       16   3    5    1  -269.24529795   -0.29E-06* -0.53E-03   22  33 1 -0.77E-04   0.00   0.96    QN   YES    0:00:00
       17   2    5    1  -269.24529809   -0.13E-06* -0.28E-03   23  30 1 -0.26E-04   0.00   1.53    LS   YES    0:00:00
       18   1    5    1  -269.24529810   -0.18E-07* -0.14E-03   19  37 1 -0.39E-04   0.00   0.97    QN   YES    0:00:00
       19   1    4    1  -269.24529813   -0.22E-07* -0.11E-03   22  33 1  0.12E-04   0.00   1.61    QN   YES    0:00:00
       20   1    4    1  -269.24529814   -0.10E-07*  0.62E-04   23  30 1  0.67E-05   0.00   1.35    QN   YES    0:00:00
       21   2    4    1  -269.24529814   -0.39E-08  -0.51E-04   19  37 1  0.43E-05   0.00   1.18    QN   YES    0:00:00
      Convergence after 21 iterations
       22   1    4    1  -269.24529814   -0.10E-08  -0.51E-04    8  28 1 -0.20E-05   0.00   1.18    QN   YES    0:00:00
 
      ************************************************************************************************************************
                                                      Wave function printout:
                       occupation of active orbitals, and spin coupling of open shells (u,d: Spin up or down)
      ************************************************************************************************************************
 
      Note: transformation to natural orbitals
      has been made, which may change the order of the CSFs.
 
      printout of CI-coefficients larger than -1.00 for root  1
      energy=    -269.245298
      conf/sym  11111111     Coeff  Weight
             1  22220000   0.93634 0.87674
             2  222ud000  -0.00000 0.00000
             3  222u0d00  -0.00000 0.00000
             4  222u00d0   0.00000 0.00000
             5  222u000d  -0.00000 0.00000
             6  22u2d000  -0.00000 0.00000
             7  22u20d00   0.00000 0.00000
             8  22u200d0   0.00003 0.00000
             9  22u2000d   0.00000 0.00000
            10  2u22d000  -0.00013 0.00000
            11  2u220d00   0.00000 0.00000
            12  2u2200d0  -0.00001 0.00000
            13  2u22000d   0.00042 0.00000
            14  u222d000   0.00000 0.00000
            15  u2220d00   0.00000 0.00000
            16  u22200d0  -0.00001 0.00000
            17  u222000d  -0.00000 0.00000
            18  22202000  -0.12998 0.01690
            19  2220ud00   0.00005 0.00000
            20  22200200  -0.12052 0.01453
            21  2220u0d0  -0.00007 0.00000
            22  22200ud0  -0.00000 0.00000
            23  22200020  -0.00022 0.00000
            24  2220u00d   0.00508 0.00003
            25  22200u0d  -0.00000 0.00000
            26  222000ud  -0.00001 0.00000
            27  22200002   0.00031 0.00000
            28  22ud2000  -0.00008 0.00000
            29  22udud00   0.21881 0.04788
            30  22ud0200   0.00008 0.00000
            31  22udu0d0   0.00000 0.00000
            32  22ud0ud0   0.00012 0.00000
            33  22ud0020  -0.00000 0.00000
            34  22udu00d   0.00000 0.00000
            35  22ud0u0d  -0.00784 0.00006
            36  22ud00ud  -0.00000 0.00000
            37  22ud0002  -0.00000 0.00000
            38  2u2d2000  -0.00000 0.00000
            39  2u2dud00  -0.00004 0.00000
            40  2u2d0200   0.00000 0.00000
            41  2u2du0d0   0.00000 0.00000
            42  2u2d0ud0  -0.00779 0.00006
            43  2u2d0020  -0.00000 0.00000
            44  2u2du00d  -0.00000 0.00000
            45  2u2d0u0d  -0.00014 0.00000
            46  2u2d00ud  -0.00001 0.00000
            47  2u2d0002  -0.00000 0.00000
            48  u22d2000   0.00000 0.00000
            49  u22dud00  -0.00928 0.00009
            50  u22d0200  -0.00000 0.00000
            51  u22du0d0  -0.00000 0.00000
            52  u22d0ud0   0.00012 0.00000
            53  u22d0020  -0.00001 0.00000
            54  u22du00d   0.00000 0.00000
            55  u22d0u0d  -0.00613 0.00004
            56  u22d00ud  -0.00000 0.00000
            57  u22d0002  -0.00000 0.00000
            58  22022000  -0.10859 0.01179
            59  2202ud00  -0.00005 0.00000
            60  22020200  -0.08437 0.00712
            61  2202u0d0  -0.00010 0.00000
            62  22020ud0   0.00000 0.00000
            63  22020020  -0.00277 0.00001
            64  2202u00d   0.00669 0.00004
            65  22020u0d   0.00000 0.00000
            66  220200ud  -0.00005 0.00000
            67  22020002  -0.00084 0.00000
            68  2ud22000   0.00001 0.00000
            69  2ud2ud00  -0.00000 0.00000
            70  2ud20200   0.00002 0.00000
            71  2ud2u0d0   0.00567 0.00003
            72  2ud20ud0   0.00000 0.00000
            73  2ud20020   0.00032 0.00000
            74  2ud2u00d   0.00010 0.00000
            75  2ud20u0d   0.00000 0.00000
            76  2ud200ud  -0.01616 0.00026
            77  2ud20002  -0.00040 0.00000
            78  u2d22000   0.00325 0.00001
            79  u2d2ud00  -0.00000 0.00000
            80  u2d20200   0.00684 0.00005
            81  u2d2u0d0  -0.00011 0.00000
            82  u2d20ud0   0.00000 0.00000
            83  u2d20020  -0.01687 0.00028
            84  u2d2u00d   0.00579 0.00003
            85  u2d20u0d   0.00000 0.00000
            86  u2d200ud  -0.00022 0.00000
            87  u2d20002  -0.00639 0.00004
            88  20222000  -0.00744 0.00006
            89  2022ud00   0.00000 0.00000
            90  20220200  -0.00079 0.00000
            91  2022u0d0   0.00031 0.00000
            92  20220ud0   0.00000 0.00000
            93  20220020  -0.03711 0.00138
            94  2022u00d  -0.02251 0.00051
            95  20220u0d  -0.00000 0.00000
            96  202200ud   0.00045 0.00000
            97  20220002  -0.06933 0.00481
            98  ud222000   0.00002 0.00000
            99  ud22ud00   0.00000 0.00000
           100  ud220200   0.00000 0.00000
           101  ud22u0d0  -0.01224 0.00015
           102  ud220ud0  -0.00000 0.00000
           103  ud220020   0.00174 0.00000
           104  ud22u00d  -0.00014 0.00000
           105  ud220u0d   0.00000 0.00000
           106  ud2200ud  -0.07987 0.00638
           107  ud220002  -0.00170 0.00000
           108  02222000  -0.00060 0.00000
           109  0222ud00   0.00000 0.00000
           110  02220200  -0.00041 0.00000
           111  0222u0d0   0.00005 0.00000
           112  02220ud0   0.00000 0.00000
           113  02220020  -0.05643 0.00318
           114  0222u00d  -0.00127 0.00000
           115  02220u0d  -0.00000 0.00000
           116  022200ud  -0.00054 0.00000
           117  02220002  -0.02251 0.00051
           118  22uudd00  -0.01663 0.00028
           119  22uud0d0  -0.00000 0.00000
           120  22uu0dd0   0.00002 0.00000
           121  22uud00d  -0.00000 0.00000
           122  22uu0d0d  -0.00138 0.00000
           123  22uu00dd   0.00000 0.00000
           124  2u2udd00  -0.00000 0.00000
           125  2u2ud0d0   0.00001 0.00000
           126  2u2u0dd0  -0.01823 0.00033
           127  2u2ud00d  -0.00000 0.00000
           128  2u2u0d0d  -0.00033 0.00000
           129  2u2u00dd  -0.00000 0.00000
           130  u22udd00  -0.00024 0.00000
           131  u22ud0d0  -0.00000 0.00000
           132  u22u0dd0   0.00025 0.00000
           133  u22ud00d   0.00001 0.00000
           134  u22u0d0d  -0.01345 0.00018
           135  u22u00dd   0.00000 0.00000
           136  2uu2dd00  -0.00000 0.00000
           137  2uu2d0d0   0.02221 0.00049
           138  2uu20dd0   0.00001 0.00000
           139  2uu2d00d   0.00040 0.00000
           140  2uu20d0d   0.00000 0.00000
           141  2uu200dd  -0.00361 0.00001
           142  u2u2dd00   0.00000 0.00000
           143  u2u2d0d0  -0.00028 0.00000
           144  u2u20dd0   0.00000 0.00000
           145  u2u2d00d   0.01411 0.00020
           146  u2u20d0d   0.00001 0.00000
           147  u2u200dd   0.00001 0.00000
           148  uu22dd00   0.00000 0.00000
           149  uu22d0d0  -0.01353 0.00018
           150  uu220dd0  -0.00000 0.00000
           151  uu22d00d  -0.00022 0.00000
           152  uu220d0d   0.00000 0.00000
           153  uu2200dd   0.01696 0.00029
           154  22u02d00   0.00000 0.00000
           155  22u0d200  -0.00000 0.00000
           156  22u020d0  -0.00033 0.00000
           157  22u0dud0   0.00000 0.00000
           158  22u0udd0  -0.00000 0.00000
           159  22u002d0   0.00013 0.00000
           160  22u0d020   0.00001 0.00000
           161  22u00d20   0.00000 0.00000
           162  22u0200d  -0.00001 0.00000
           163  22u0du0d   0.00000 0.00000
           164  22u0ud0d  -0.00000 0.00000
           165  22u0020d   0.00000 0.00000
           166  22u0d0ud  -0.00048 0.00000
           167  22u00dud   0.00000 0.00000
           168  22u0u0dd   0.00024 0.00000
           169  22u00udd   0.00000 0.00000
           170  22u0002d   0.00000 0.00000
           171  22u0d002  -0.00001 0.00000
           172  22u00d02  -0.00000 0.00000
           173  22u000d2  -0.00002 0.00000
           174  2u202d00  -0.00000 0.00000
           175  2u20d200   0.00085 0.00000
           176  2u2020d0  -0.00000 0.00000
           177  2u20dud0  -0.00000 0.00000
           178  2u20udd0  -0.00000 0.00000
           179  2u2002d0  -0.00002 0.00000
           180  2u20d020  -0.00104 0.00000
           181  2u200d20   0.00000 0.00000
           182  2u20200d   0.00011 0.00000
           183  2u20du0d  -0.00000 0.00000
           184  2u20ud0d  -0.00000 0.00000
           185  2u20020d   0.00101 0.00000
           186  2u20d0ud   0.00004 0.00000
           187  2u200dud  -0.00000 0.00000
           188  2u20u0dd   0.00000 0.00000
           189  2u200udd   0.00000 0.00000
           190  2u20002d  -0.00007 0.00000
           191  2u20d002  -0.00314 0.00001
           192  2u200d02   0.00000 0.00000
           193  2u2000d2  -0.00000 0.00000
           194  u2202d00  -0.00000 0.00000
           195  u220d200  -0.00000 0.00000
           196  u22020d0  -0.00041 0.00000
           197  u220dud0  -0.00000 0.00000
           198  u220udd0  -0.00000 0.00000
           199  u22002d0   0.00058 0.00000
           200  u220d020   0.00005 0.00000
           201  u2200d20   0.00000 0.00000
           202  u220200d  -0.00001 0.00000
           203  u220du0d  -0.00000 0.00000
           204  u220ud0d  -0.00000 0.00000
           205  u220020d   0.00001 0.00000
           206  u220d0ud  -0.00221 0.00000
           207  u2200dud   0.00000 0.00000
           208  u220u0dd   0.00109 0.00000
           209  u2200udd  -0.00000 0.00000
           210  u220002d   0.00000 0.00000
           211  u220d002  -0.00004 0.00000
           212  u2200d02  -0.00000 0.00000
           213  u22000d2  -0.00008 0.00000
           214  220u2d00  -0.00000 0.00000
           215  220ud200  -0.00000 0.00000
           216  220u20d0   0.00000 0.00000
           217  220udud0   0.00027 0.00000
           218  220uudd0  -0.00043 0.00000
           219  220u02d0  -0.00000 0.00000
           220  220ud020   0.00000 0.00000
           221  220u0d20  -0.00001 0.00000
           222  220u200d  -0.00000 0.00000
           223  220udu0d   0.00000 0.00000
           224  220uud0d  -0.00001 0.00000
           225  220u020d  -0.00000 0.00000
           226  220ud0ud  -0.00000 0.00000
           227  220u0dud   0.00053 0.00000
           228  220uu0dd   0.00000 0.00000
           229  220u0udd  -0.00017 0.00000
           230  220u002d   0.00000 0.00000
           231  220ud002   0.00000 0.00000
           232  220u0d02   0.00001 0.00000
           233  220u00d2  -0.00000 0.00000
           234  2udu2d00   0.00014 0.00000
           235  2udud200   0.00000 0.00000
           236  2udu20d0   0.00000 0.00000
           237  2ududud0   0.00001 0.00000
           238  2uduudd0   0.00000 0.00000
           239  2udu02d0   0.00000 0.00000
           240  2udud020  -0.00000 0.00000
           241  2udu0d20   0.00068 0.00000
           242  2udu200d   0.00000 0.00000
           243  2ududu0d  -0.00086 0.00000
           244  2uduud0d  -0.00028 0.00000
           245  2udu020d  -0.00000 0.00000
           246  2udud0ud   0.00000 0.00000
           247  2udu0dud  -0.00003 0.00000
           248  2uduu0dd   0.00000 0.00000
           249  2udu0udd  -0.00000 0.00000
           250  2udu002d  -0.00000 0.00000
           251  2udud002  -0.00000 0.00000
           252  2udu0d02   0.00215 0.00000
           253  2udu00d2   0.00000 0.00000
           254  u2du2d00   0.00000 0.00000
           255  u2dud200   0.00000 0.00000
           256  u2du20d0   0.00000 0.00000
           257  u2dudud0  -0.00031 0.00000
           258  u2duudd0  -0.00047 0.00000
           259  u2du02d0  -0.00000 0.00000
           260  u2dud020   0.00000 0.00000
           261  u2du0d20  -0.00004 0.00000
           262  u2du200d   0.00000 0.00000
           263  u2dudu0d  -0.00000 0.00000
           264  u2duud0d  -0.00001 0.00000
           265  u2du020d   0.00000 0.00000
           266  u2dud0ud  -0.00000 0.00000
           267  u2du0dud   0.00163 0.00000
           268  u2duu0dd   0.00000 0.00000
           269  u2du0udd  -0.00056 0.00000
           270  u2du002d   0.00000 0.00000
           271  u2dud002  -0.00000 0.00000
           272  u2du0d02   0.00003 0.00000
           273  u2du00d2  -0.00000 0.00000
           274  202u2d00   0.00000 0.00000
           275  202ud200   0.00000 0.00000
           276  202u20d0   0.00000 0.00000
           277  202udud0  -0.00018 0.00000
           278  202uudd0  -0.00020 0.00000
           279  202u02d0  -0.00000 0.00000
           280  202ud020   0.00000 0.00000
           281  202u0d20  -0.00002 0.00000
           282  202u200d   0.00000 0.00000
           283  202udu0d  -0.00000 0.00000
           284  202uud0d  -0.00001 0.00000
           285  202u020d   0.00000 0.00000
           286  202ud0ud  -0.00000 0.00000
           287  202u0dud   0.00070 0.00000
           288  202uu0dd  -0.00000 0.00000
           289  202u0udd  -0.00004 0.00000
           290  202u002d   0.00000 0.00000
           291  202ud002   0.00000 0.00000
           292  202u0d02   0.00002 0.00000
           293  202u00d2  -0.00000 0.00000
           294  ud2u2d00   0.00056 0.00000
           295  ud2ud200   0.00000 0.00000
           296  ud2u20d0  -0.00000 0.00000
           297  ud2udud0   0.00000 0.00000
           298  ud2uudd0   0.00002 0.00000
           299  ud2u02d0   0.00000 0.00000
           300  ud2ud020   0.00000 0.00000
           301  ud2u0d20  -0.00051 0.00000
           302  ud2u200d   0.00000 0.00000
           303  ud2udu0d  -0.00027 0.00000
           304  ud2uud0d  -0.00134 0.00000
           305  ud2u020d  -0.00000 0.00000
           306  ud2ud0ud   0.00000 0.00000
           307  ud2u0dud  -0.00001 0.00000
           308  ud2uu0dd   0.00000 0.00000
           309  ud2u0udd   0.00000 0.00000
           310  ud2u002d  -0.00000 0.00000
           311  ud2ud002   0.00000 0.00000
           312  ud2u0d02  -0.00026 0.00000
           313  ud2u00d2   0.00000 0.00000
           314  022u2d00  -0.00000 0.00000
           315  022ud200   0.00000 0.00000
           316  022u20d0   0.00000 0.00000
           317  022udud0  -0.00058 0.00000
           318  022uudd0  -0.00165 0.00000
           319  022u02d0  -0.00000 0.00000
           320  022ud020   0.00000 0.00000
           321  022u0d20   0.00000 0.00000
           322  022u200d  -0.00000 0.00000
           323  022udu0d  -0.00001 0.00000
           324  022uud0d  -0.00002 0.00000
           325  022u020d   0.00000 0.00000
           326  022ud0ud   0.00000 0.00000
           327  022u0dud   0.00006 0.00000
           328  022uu0dd  -0.00000 0.00000
           329  022u0udd   0.00007 0.00000
           330  022u002d   0.00000 0.00000
           331  022ud002   0.00000 0.00000
           332  022u0d02   0.00000 0.00000
           333  022u00d2   0.00000 0.00000
           334  2uud2d00  -0.00001 0.00000
           335  2uudd200  -0.00000 0.00000
           336  2uud20d0   0.00000 0.00000
           337  2uuddud0   0.00002 0.00000
           338  2uududd0   0.00001 0.00000
           339  2uud02d0   0.00000 0.00000
           340  2uudd020  -0.00000 0.00000
           341  2uud0d20   0.00108 0.00000
           342  2uud200d   0.00000 0.00000
           343  2uuddu0d  -0.00142 0.00000
           344  2uudud0d  -0.00032 0.00000
           345  2uud020d  -0.00000 0.00000
           346  2uudd0ud   0.00000 0.00000
           347  2uud0dud  -0.00004 0.00000
           348  2uudu0dd  -0.00000 0.00000
           349  2uud0udd  -0.00000 0.00000
           350  2uud002d  -0.00000 0.00000
           351  2uudd002  -0.00000 0.00000
           352  2uud0d02   0.00297 0.00001
           353  2uud00d2  -0.00000 0.00000
           354  u2ud2d00   0.00000 0.00000
           355  u2udd200  -0.00000 0.00000
           356  u2ud20d0   0.00000 0.00000
           357  u2uddud0  -0.00017 0.00000
           358  u2ududd0  -0.00008 0.00000
           359  u2ud02d0  -0.00000 0.00000
           360  u2udd020  -0.00000 0.00000
           361  u2ud0d20  -0.00005 0.00000
           362  u2ud200d   0.00000 0.00000
           363  u2uddu0d   0.00000 0.00000
           364  u2udud0d   0.00000 0.00000
           365  u2ud020d   0.00000 0.00000
           366  u2udd0ud  -0.00000 0.00000
           367  u2ud0dud   0.00216 0.00000
           368  u2udu0dd   0.00000 0.00000
           369  u2ud0udd  -0.00109 0.00000
           370  u2ud002d   0.00000 0.00000
           371  u2udd002   0.00000 0.00000
           372  u2ud0d02   0.00004 0.00000
           373  u2ud00d2  -0.00000 0.00000
           374  uu2d2d00  -0.00033 0.00000
           375  uu2dd200  -0.00000 0.00000
           376  uu2d20d0   0.00000 0.00000
           377  uu2ddud0  -0.00001 0.00000
           378  uu2dudd0  -0.00001 0.00000
           379  uu2d02d0  -0.00000 0.00000
           380  uu2dd020  -0.00000 0.00000
           381  uu2d0d20   0.00006 0.00000
           382  uu2d200d  -0.00000 0.00000
           383  uu2ddu0d   0.00043 0.00000
           384  uu2dud0d   0.00063 0.00000
           385  uu2d020d   0.00000 0.00000
           386  uu2dd0ud   0.00000 0.00000
           387  uu2d0dud   0.00000 0.00000
           388  uu2du0dd   0.00000 0.00000
           389  uu2d0udd   0.00000 0.00000
           390  uu2d002d   0.00000 0.00000
           391  uu2dd002   0.00000 0.00000
           392  uu2d0d02   0.00004 0.00000
           393  uu2d00d2   0.00000 0.00000
[...]
     8 C2     2px       -0.0001    0.0000    0.0003   -0.0001   -0.0002    0.0001    0.0000   -0.0642   -0.0464    0.0814
     9 C2     2py        0.0001   -0.0000    0.0000   -0.0000    0.0000   -0.0001   -0.0000    0.0416    0.0080   -0.0423
    10 C2     2pz       -0.0001    0.0000    0.0004   -0.0003   -0.0003    0.0002    0.0000   -0.0720   -0.1245   -0.0595
    11 C3     1s        -0.0291    0.0484    0.4479    0.5450    0.4221    0.5665    0.0008   -0.0376    0.0371   -0.0154
    12 C3     2s        -0.0000   -0.0001    0.0008    0.0008    0.0009    0.0011   -0.0000    0.2371   -0.3347    0.1945
    13 C3     2px       -0.0001    0.0000    0.0003    0.0002    0.0002    0.0001   -0.0000    0.0643   -0.0464    0.0815
    14 C3     2py       -0.0000    0.0000   -0.0000   -0.0000    0.0000    0.0001   -0.0000    0.0416   -0.0081    0.0422
    15 C3     2pz       -0.0001   -0.0000    0.0003    0.0004    0.0002    0.0003   -0.0000    0.0720   -0.1245   -0.0596
    16 C4     1s        -0.0292    0.0486   -0.5488    0.4475   -0.5655    0.4191    0.0008   -0.0375   -0.0371   -0.0154
    17 C4     2s        -0.0000   -0.0001   -0.0009    0.0006   -0.0012    0.0008   -0.0000    0.2370    0.3347    0.1946
    18 C4     2px        0.0001   -0.0000    0.0003   -0.0001    0.0002   -0.0001    0.0000   -0.0642   -0.0464   -0.0814
    19 C4     2py       -0.0000    0.0000    0.0000   -0.0000   -0.0000    0.0001   -0.0000    0.0416    0.0081    0.0422
    20 C4     2pz       -0.0001   -0.0000   -0.0004    0.0003   -0.0003    0.0002   -0.0000    0.0720    0.1245   -0.0595
    21 C5     1s         0.8022    0.5916    0.0061   -0.0613   -0.0076    0.0505   -0.0110   -0.0332   -0.0000    0.0297
    22 C5     2s         0.0015    0.0010    0.0000   -0.0003   -0.0000    0.0001   -0.0002    0.1965    0.0001   -0.4044
    23 C5     2px       -0.0000   -0.0000    0.0000    0.0000    0.0001    0.0000    0.0000   -0.0000    0.1032    0.0001
    24 C5     2py       -0.0005   -0.0003   -0.0000    0.0001   -0.0000    0.0001   -0.0002   -0.1054   -0.0000    0.1236
    25 C5     2pz       -0.0002   -0.0000   -0.0000    0.0002   -0.0000    0.0001    0.0001   -0.0092   -0.0000   -0.0170
    26 C6     1s        -0.5927    0.8014    0.0063   -0.0616    0.0074   -0.0505   -0.0110   -0.0333    0.0000   -0.0297
    27 C6     2s        -0.0011    0.0014    0.0000   -0.0003    0.0000   -0.0001   -0.0002    0.1966   -0.0001    0.4045
    28 C6     2px        0.0000   -0.0000    0.0000    0.0000   -0.0001   -0.0000   -0.0000   -0.0001    0.1032   -0.0001
    29 C6     2py        0.0004   -0.0004   -0.0000    0.0001    0.0000   -0.0001   -0.0002   -0.1054    0.0000   -0.1235
    30 C6     2pz       -0.0002    0.0001    0.0000   -0.0002   -0.0000    0.0001   -0.0001    0.0093    0.0000   -0.0168
    31 C7     1s         0.0023    0.0150    0.0003   -0.0029   -0.0000    0.0000    0.9999   -0.0194    0.0000    0.0000
    32 C7     2s        -0.0001   -0.0004    0.0000   -0.0000   -0.0000    0.0000    0.0018    0.0058   -0.0000   -0.0000
    33 C7     2px       -0.0000    0.0000    0.0002    0.0000   -0.0000    0.0000   -0.0000   -0.0000    0.0089   -0.0000
    34 C7     2py        0.0001    0.0004   -0.0000    0.0002    0.0000   -0.0000    0.0000    0.0624   -0.0000   -0.0000
    35 C7     2pz       -0.0004    0.0001    0.0000   -0.0000   -0.0000    0.0000    0.0000   -0.0000   -0.0000    0.0265
    36 H8     1s        -0.0000   -0.0001    0.0001    0.0001   -0.0001   -0.0002   -0.0001    0.0197   -0.0575   -0.0355
    37 H9     1s        -0.0000   -0.0001   -0.0001    0.0001    0.0002   -0.0001   -0.0001    0.0197    0.0575   -0.0354
    38 H10    1s        -0.0000   -0.0001    0.0001    0.0001    0.0001    0.0002   -0.0001    0.0197   -0.0575    0.0354
    39 H11    1s        -0.0000   -0.0001   -0.0001    0.0001   -0.0002    0.0001   -0.0001    0.0197    0.0575    0.0354
    40 H12    1s         0.0003    0.0001    0.0000   -0.0001   -0.0000    0.0000   -0.0000    0.0257    0.0000   -0.0980
    41 H13    1s        -0.0002    0.0001    0.0000   -0.0001    0.0000   -0.0000   -0.0000    0.0257   -0.0000    0.0980
    42 H14    1s        -0.0000   -0.0000    0.0001   -0.0001   -0.0000    0.0000    0.0001    0.0121    0.0016   -0.0000
    43 H15    1s        -0.0000   -0.0000   -0.0000   -0.0001   -0.0000    0.0000    0.0001    0.0121   -0.0017   -0.0000
 
 
      Orbital                11        12        13        14        15        16        17        18        19        20
      Energy            -0.9238   -0.8419   -0.8356   -0.7615   -0.7326   -0.7239   -0.6594   -0.6125   -0.6010   -0.5782
      Occ. No.           2.0000    2.0000    2.0000    2.0000    2.0000    2.0000    2.0000    2.0000    2.0000    2.0000
 
     1 C1     1s         0.0142   -0.0038   -0.0152    0.0084    0.0079    0.0042   -0.0068   -0.0006   -0.0053    0.0037
     2 C1     2s        -0.1413    0.1062    0.3177    0.0937   -0.2326    0.0669   -0.0010   -0.0266   -0.0078    0.0666
     3 C1     2px        0.0816   -0.0948    0.0003   -0.1560    0.1148   -0.2146    0.0081   -0.2249   -0.0265    0.1641
     4 C1     2py        0.0535   -0.0719   -0.0045   -0.1171    0.0803   -0.1446    0.0175   -0.1260   -0.0157    0.1161
     5 C1     2pz        0.1065   -0.0938    0.1399    0.1624   -0.1141    0.0933   -0.3619    0.0302   -0.3438    0.1463
     6 C2     1s         0.0142   -0.0038    0.0153    0.0084    0.0079   -0.0042    0.0068   -0.0006   -0.0053   -0.0037
     7 C2     2s        -0.1411    0.1051   -0.3182    0.0937   -0.2326   -0.0670    0.0010   -0.0266   -0.0078   -0.0665
     8 C2     2px       -0.0816    0.0948    0.0000    0.1559   -0.1146   -0.2146    0.0081    0.2248    0.0268    0.1640
     9 C2     2py        0.0536   -0.0719    0.0049   -0.1171    0.0803    0.1448   -0.0175   -0.1260   -0.0159   -0.1161
    10 C2     2pz        0.1065   -0.0942   -0.1396    0.1623   -0.1139   -0.0935    0.3620    0.0303   -0.3436   -0.1465
    11 C3     1s         0.0142   -0.0038    0.0153    0.0084   -0.0079    0.0042   -0.0068    0.0006   -0.0053    0.0037
    12 C3     2s        -0.1412    0.1051   -0.3181    0.0938    0.2325    0.0670   -0.0010    0.0266   -0.0079    0.0666
    13 C3     2px        0.0817   -0.0948   -0.0001   -0.1561   -0.1146   -0.2147    0.0080    0.2249   -0.0268    0.1657
    14 C3     2py        0.0535   -0.0718    0.0050   -0.1172   -0.0803   -0.1448    0.0176    0.1260   -0.0158    0.1174
    15 C3     2pz       -0.1066    0.0943    0.1397   -0.1624   -0.1138   -0.0933    0.3619    0.0303    0.3437   -0.1461
    16 C4     1s         0.0142   -0.0038   -0.0152    0.0083   -0.0079   -0.0042    0.0068    0.0006   -0.0053   -0.0037
    17 C4     2s        -0.1412    0.1063    0.3178    0.0938    0.2325   -0.0669    0.0010    0.0266   -0.0078   -0.0666
    18 C4     2px       -0.0816    0.0948   -0.0005    0.1560    0.1147   -0.2146    0.0081   -0.2247    0.0265    0.1658
    19 C4     2py        0.0535   -0.0719   -0.0047   -0.1172   -0.0804    0.1448   -0.0178    0.1259   -0.0155   -0.1175
    20 C4     2pz       -0.1065    0.0937   -0.1400   -0.1623   -0.1140    0.0933   -0.3619    0.0301    0.3437    0.1463
    21 C5     1s        -0.0154    0.0137   -0.0000    0.0103   -0.0092   -0.0000    0.0000    0.0001    0.0003    0.0000
    22 C5     2s         0.2252   -0.2640    0.0005    0.1415    0.2114    0.0000   -0.0000   -0.0967    0.0381    0.0000
    23 C5     2px        0.0000   -0.0004   -0.2083   -0.0000   -0.0000    0.1934    0.1678    0.0001   -0.0002   -0.2679
    24 C5     2py       -0.0497    0.0458   -0.0001    0.1363    0.0551    0.0000   -0.0000    0.2748    0.2240    0.0000
    25 C5     2pz        0.1001   -0.0243    0.0001    0.2085    0.2035    0.0000   -0.0001    0.3534    0.2868   -0.0000
    26 C6     1s        -0.0154    0.0137   -0.0000    0.0103    0.0092    0.0000    0.0000   -0.0001    0.0003   -0.0000
    27 C6     2s         0.2252   -0.2639    0.0006    0.1414   -0.2115   -0.0001    0.0001    0.0967    0.0381   -0.0001
    28 C6     2px       -0.0001    0.0004    0.2083   -0.0000   -0.0000    0.1934    0.1678   -0.0001    0.0003   -0.2706
    29 C6     2py       -0.0497    0.0457   -0.0001    0.1362   -0.0550   -0.0000    0.0000   -0.2745    0.2238    0.0001
    30 C6     2pz       -0.1000    0.0243   -0.0001   -0.2085    0.2035    0.0000   -0.0001    0.3535   -0.2870   -0.0001
    31 C7     1s        -0.0282   -0.0161    0.0000    0.0153   -0.0000    0.0000    0.0000    0.0000    0.0035   -0.0000
    32 C7     2s         0.3587    0.4487   -0.0008    0.0110   -0.0000    0.0000    0.0000   -0.0000   -0.0669   -0.0000
    33 C7     2px       -0.0000   -0.0001   -0.0000    0.0000   -0.0000    0.2860    0.2881    0.0001   -0.0001    0.5344
    34 C7     2py        0.2158    0.2628   -0.0004   -0.0448   -0.0000    0.0001    0.0000   -0.0000   -0.0190    0.0001
    35 C7     2pz       -0.0001   -0.0001    0.0000    0.0000   -0.0183    0.0000    0.0000   -0.0076    0.0000    0.0000
    36 H8     1s        -0.0615    0.0434    0.1466    0.1432   -0.1937    0.1456   -0.1285    0.1323   -0.1278   -0.0081
    37 H9     1s        -0.0615    0.0429   -0.1468    0.1431   -0.1935   -0.1458    0.1285    0.1322   -0.1276    0.0079
    38 H10    1s        -0.0615    0.0429   -0.1467    0.1433    0.1935    0.1458   -0.1285   -0.1323   -0.1276   -0.0094
    39 H11    1s        -0.0615    0.0434    0.1466    0.1432    0.1936   -0.1457    0.1285   -0.1322   -0.1278    0.0094
    40 H12    1s         0.0922   -0.0913    0.0002    0.1516    0.2048    0.0000   -0.0001    0.2338    0.2512    0.0000
    41 H13    1s         0.0922   -0.0912    0.0002    0.1516   -0.2049   -0.0000    0.0001   -0.2338    0.2513    0.0001
    42 H14    1s         0.1682    0.2080   -0.0003   -0.0268    0.0000   -0.1200   -0.1436   -0.0001   -0.0514   -0.3245
    43 H15    1s         0.1681    0.2080   -0.0004   -0.0268   -0.0000    0.1200    0.1436    0.0001   -0.0516    0.3245
 
 
      Orbital                21        22        23        24        25        26        27        28        29
      Energy            -0.5653    0.0000    0.0000    0.0000    0.0000    0.0000    0.0000    0.0000    0.0000
      Occ. No.           2.0000    1.9827    1.9755    1.9049    1.8802    0.1153    0.0999    0.0202    0.0213
 
     1 C1     1s         0.0006    0.0045   -0.0000    0.0039    0.0032   -0.0042    0.0005    0.0014    0.0005
     2 C1     2s         0.0264    0.0915    0.0020    0.0848    0.0436   -0.0771   -0.0230   -0.0085    0.0094
     3 C1     2px        0.2647    0.0899    0.0516   -0.1846    0.3169    0.2970   -0.4357    0.0111   -0.0326
     4 C1     2py        0.2202    0.0496   -0.0057    0.3756   -0.3665   -0.5362    0.5060   -0.0596    0.1047
     5 C1     2pz       -0.0302   -0.0198    0.0177    0.0307    0.0098   -0.0285   -0.0189    0.0434   -0.0319
     6 C2     1s        -0.0006    0.0045   -0.0000    0.0039   -0.0032   -0.0043   -0.0005    0.0014    0.0005
     7 C2     2s        -0.0265    0.0915    0.0020    0.0850   -0.0435   -0.0774    0.0227   -0.0085    0.0095
     8 C2     2px        0.2647   -0.0899   -0.0516    0.1849    0.3170   -0.2969   -0.4360   -0.0111    0.0326
     9 C2     2py       -0.2203    0.0496   -0.0057    0.3756    0.3662   -0.5358   -0.5062   -0.0596    0.1047
    10 C2     2pz        0.0306   -0.0198    0.0177    0.0307   -0.0098   -0.0285    0.0188    0.0434   -0.0319
    11 C3     1s        -0.0006    0.0045    0.0000    0.0039    0.0032    0.0043   -0.0005    0.0014   -0.0005
    12 C3     2s        -0.0260    0.0915   -0.0024    0.0851    0.0434    0.0774    0.0227   -0.0082   -0.0097
    13 C3     2px       -0.2636    0.0897   -0.0521   -0.1846    0.3169   -0.2969    0.4356    0.0101    0.0330
    14 C3     2py       -0.2194    0.0496    0.0055    0.3756   -0.3665    0.5362   -0.5061   -0.0563   -0.1066
    15 C3     2pz       -0.0315    0.0199    0.0177   -0.0309   -0.0096   -0.0288   -0.0186   -0.0423   -0.0332
    16 C4     1s         0.0006    0.0045    0.0000    0.0039   -0.0032    0.0043    0.0005    0.0014   -0.0005
    17 C4     2s         0.0260    0.0914   -0.0024    0.0850   -0.0435    0.0774   -0.0227   -0.0083   -0.0097
    18 C4     2px       -0.2637   -0.0897    0.0520    0.1848    0.3170    0.2969    0.4360   -0.0101   -0.0330
    19 C4     2py        0.2196    0.0496    0.0055    0.3756    0.3663    0.5359    0.5061   -0.0563   -0.1066
    20 C4     2pz        0.0311    0.0199    0.0176   -0.0310    0.0096   -0.0289    0.0185   -0.0423   -0.0332
    21 C5     1s        -0.0000    0.0164    0.0066   -0.0014    0.0000   -0.0015   -0.0000    0.0680   -0.0637
    22 C5     2s        -0.0000   -0.1183   -0.1840   -0.0276    0.0000   -0.0048    0.0000    0.5939   -0.5511
    23 C5     2px       -0.4180    0.0000   -0.0000   -0.0000   -0.0352    0.0001    0.0867   -0.0000    0.0000
    24 C5     2py       -0.0001   -0.2852   -0.3266   -0.0861    0.0000    0.0704   -0.0000    0.5385   -0.5954
    25 C5     2pz       -0.0001    0.2378    0.3225    0.0165   -0.0000    0.0001   -0.0000   -0.5446    0.4157
    26 C6     1s         0.0000    0.0163   -0.0066   -0.0014    0.0000    0.0015   -0.0000    0.0659    0.0658
    27 C6     2s         0.0001   -0.1174    0.1845   -0.0276    0.0000    0.0047    0.0000    0.5754    0.5695
    28 C6     2px        0.4162   -0.0001    0.0000   -0.0000   -0.0352    0.0000   -0.0867    0.0001    0.0001
    29 C6     2py       -0.0002   -0.2839    0.3281   -0.0862    0.0000   -0.0703    0.0000    0.5193    0.6126
    30 C6     2pz        0.0002   -0.2362    0.3233   -0.0164    0.0000    0.0001    0.0000    0.5304    0.4326
    31 C7     1s         0.0000    0.0298   -0.0000   -0.0066    0.0000   -0.0000    0.0000   -0.1318   -0.0021
    32 C7     2s         0.0001   -0.3557    0.0008   -0.1624    0.0001   -0.0001    0.0000   -1.1545   -0.0183
    33 C7     2px        0.0017   -0.0000    0.0000    0.0000   -0.0864    0.0000    0.0000   -0.0001   -0.0001
    34 C7     2py        0.0000    0.5347   -0.0013    0.0893   -0.0000    0.0001    0.0000    0.8813    0.0143
    35 C7     2pz        0.0000   -0.0014   -0.5809    0.0001   -0.0000    0.2035    0.0000   -0.0186    1.1324
    36 H8     1s        -0.2029   -0.0378   -0.0375    0.0015    0.0065    0.0275    0.0072    0.0545   -0.0461
    37 H9     1s         0.2031   -0.0378   -0.0375    0.0015   -0.0065    0.0277   -0.0071    0.0545   -0.0461
    38 H10    1s         0.2030   -0.0377    0.0377    0.0015    0.0065   -0.0277   -0.0071    0.0531    0.0479
    39 H11    1s        -0.2029   -0.0376    0.0377    0.0015   -0.0065   -0.0277    0.0071    0.0530    0.0479
    40 H12    1s        -0.0001    0.0212    0.1032   -0.0523    0.0000    0.0323    0.0000   -0.0161   -0.0798
    41 H13    1s        -0.0002    0.0208   -0.1032   -0.0523    0.0000   -0.0323   -0.0000   -0.0187    0.0792
    42 H14    1s        -0.0011    0.1249   -0.0003    0.0067    0.0707   -0.0000    0.0000   -0.0278   -0.0004
    43 H15    1s         0.0011    0.1249   -0.0003    0.0067   -0.0707    0.0000    0.0000   -0.0279   -0.0004
--
 
      Von Neumann Entropy (Root   1) =  0.77074
 

      Mulliken population analysis for root number:  1
      -----------------------------------------------
 
 
++    Molecular charges:
      ------------------
 
      Mulliken charges per centre and basis function type
      ---------------------------------------------------
 
                C1      C2      C3      C4      C5      C6      C7      H8      H9      H10     H11     H12   
      1s       2.0002  2.0002  2.0002  2.0002  2.0002  2.0002  2.0002  0.7674  0.7674  0.7674  0.7674  0.7743
      2s       1.1636  1.1636  1.1636  1.1636  1.1868  1.1868  1.2442  0.0000  0.0000  0.0000  0.0000  0.0000
      2px      1.0263  1.0262  1.0263  1.0263  0.9485  0.9485  1.2025  0.0000  0.0000  0.0000  0.0000  0.0000
      2pz      1.0275  1.0275  1.0275  1.0274  1.1285  1.1285  0.9024  0.0000  0.0000  0.0000  0.0000  0.0000
      2py      1.0231  1.0231  1.0232  1.0232  0.9665  0.9664  1.0474  0.0000  0.0000  0.0000  0.0000  0.0000
      Total    6.2406  6.2407  6.2407  6.2407  6.2304  6.2304  6.3967  0.7674  0.7674  0.7674  0.7674  0.7743
 
      N-E     -0.2406 -0.2407 -0.2407 -0.2407 -0.2304 -0.2304 -0.3967  0.2326  0.2326  0.2326  0.2326  0.2257
 
                H13     H14     H15   
      1s       0.7743  0.7807  0.7807
      2s       0.0000  0.0000  0.0000
      2px      0.0000  0.0000  0.0000
      2pz      0.0000  0.0000  0.0000
      2py      0.0000  0.0000  0.0000
      Total    0.7743  0.7807  0.7807
 
      N-E      0.2257  0.2193  0.2193
 
      Total electronic charge=   50.000000
 
      Total            charge=   -0.000000
--
 
 

      Expectation values of various properties for root number:  1
      -----------------------------------------------------------
 
 
++    Molecular properties:
      ---------------------
 
      Charge (e):
                      =   -0.0000
      Dipole Moment (Debye):
      Origin of the operator (Ang)=    0.0000    0.0000    0.0000
                   X= -5.0803E-04               Y=  1.4001E-01               Z=  2.5806E-04           Total=  1.4001E-01
      Quadrupole Moment (Debye*Ang):
      Origin of the operator (Ang)=    1.2263    0.5098   -0.6747
                  XX= -5.4085E+01              XY= -1.9120E-03              XZ= -4.1142E-04              YY= -5.4702E+01
                  YZ=  1.7737E-03              ZZ= -5.0693E+01
      In traceless form (Debye*Ang)
                  XX= -1.3871E+00              XY= -2.8679E-03              XZ= -6.1712E-04              YY= -2.3131E+00
                  YZ=  2.6606E-03              ZZ=  3.7003E+00
--
 

      LoProp population analysis for root number:  1
      -----------------------------------------------
 
 
++    LoProp analysis:
      ----------------
 
 
 
      Input file to MOLDEN was generated!
 
 
++    Static properties:
      ------------------
 
 
      LoProp Charges per center
 

                   C1       C2       C3       C4       C5       C6       C7       H8       H9       H10   
      Nuclear      6.0000   6.0000   6.0000   6.0000   6.0000   6.0000   6.0000   1.0000   1.0000   1.0000
      Electronic  -6.1650  -6.1650  -6.1650  -6.1650  -6.1335  -6.1335  -6.2504  -0.8480  -0.8480  -0.8480
 
      Total       -0.1650  -0.1650  -0.1650  -0.1650  -0.1335  -0.1335  -0.2504   0.1520   0.1520   0.1520
 

                   H11      H12      H13      H14      H15   
      Nuclear      1.0000   1.0000   1.0000   1.0000   1.0000
      Electronic  -0.8480  -0.8551  -0.8551  -0.8603  -0.8603
 
      Total        0.1520   0.1449   0.1449   0.1397   0.1397
--
 
 
      Natural Bond Order analysis for root number:  1
 
++    Natural Bond Order analysis
      ---------------------------
      Based on LoProp computed density
      -------------------------------------------------------------------------------------
      Atom A       Atom B       Bond Order
      -------------------------------------------------------------------------------------
      NBO located      0.996 non-bonded electrons on atom C1        
      The remaining   28.574 electrons are to be considered as diffuse
--
 
--
 
 
      Input file to MOLDEN was generated!
 
      Average orbitals are written to the RASORB file
      Natural orbitals for root   1 are written to the RASORB.1 file
      Spin density orbitals for root   1 are written to the SPDORB.1 file
 
--- Stop Module: rasscf at Tue Nov 15 11:46:06 2022 /rc=_RC_ALL_IS_WELL_ ---
*** files: molcas.LprOrb molcas.rasscf.molden molcas.LoProp.molden molcas.RasOrb molcas.RasOrb.1 molcas.rasscf.h5 molcas.SpdOrb.1 xmldump
    saved to directory /scratch/4417492.1.multiway.q
--- Module rasscf spent 37 seconds ---
 Happy landing!
    Timing: Wall=302.78 User=3.28 System=0.24
