[Molden Format]
[N_Atoms]
                    15
[Atoms] (AU)
C1          1      6          -0.00003945     -0.00001676      0.00002170
C2          2      6           4.63489171     -0.00013042      0.00016889
C3          3      6          -0.00004462     -0.00019262     -2.54977463
C4          4      6           4.63497804     -0.00104491     -2.54958966
C5          5      6           2.31739783      1.51278428      0.84261833
C6          6      6           2.31748347      1.51114307     -3.39300360
C7          7      6           2.31733571      3.54124603     -1.27541121
H8          8      1          -1.28024699     -0.98025482      1.27380038
H9          9      1           5.91443470     -0.98132703      1.27389146
H10        10      1          -1.27988286     -0.98140945     -3.82311032
H11        11      1           5.91453483     -0.98298674     -3.82260649
H12        12      1           2.31725969      2.17185870      2.80219330
H13        13      1           2.31738496      2.16933816     -5.35283564
H14        14      1           0.61502534      4.71654457     -1.27577154
H15        15      1           4.01948660      4.71683857     -1.27576428
[5D]
[Charge] (Mulliken)
 -0.240641052077889     
 -0.240656323126657     
 -0.240693441176097     
 -0.240688468834014     
 -0.230427263581241     
 -0.230425341354849     
 -0.396725165258644     
  0.232581065084486     
  0.232579450272581     
  0.232580604632533     
  0.232593643233623     
  0.225682432810222     
  0.225680107212974     
  0.219287222989340     
  0.219272529173159     
[GTO] (AU)
   1
   s  14
  0.505575010E+05  0.552699996E-04
  0.752478560E+04  0.434329997E-03
  0.169432760E+04  0.231587998E-02
  0.472822790E+03  0.987291993E-02
  0.151710750E+03  0.352194897E-01
  0.539187460E+02  0.104193749E+00
  0.206593110E+02  0.241274108E+00
  0.838397600E+01  0.384017407E+00
  0.357701500E+01  0.308237138E+00
  0.154711800E+01  0.683055395E-01
  0.613013000E+00  0.778209994E-03
  0.246068000E+00  0.990489993E-03
  0.990870000E-01 -0.892999994E-04
  0.346800000E-01  0.471399997E-04
   s  14
  0.505575010E+05 -0.120000000E-04
  0.752478560E+04 -0.940000001E-04
  0.169432760E+04 -0.502800001E-03
  0.472822790E+03 -0.214760000E-02
  0.151710750E+03 -0.779420001E-02
  0.539187460E+02 -0.237634000E-01
  0.206593110E+02 -0.600235001E-01
  0.838397600E+01 -0.115398500E+00
  0.357701500E+01 -0.153900900E+00
  0.154711800E+01 -0.145946000E-01
  0.613013000E+00  0.389584921E+00
  0.246068000E+00  0.539729071E+00
  0.990870000E-01  0.188406010E+00
  0.346800000E-01  0.258575300E-01
   p   9
  0.833331550E+02  0.122406000E-02
  0.195576110E+02  0.943894001E-02
  0.608036500E+01  0.417744100E-01
  0.217931700E+01  0.131833040E+00
  0.865150000E+00  0.278911880E+00
  0.361944000E+00  0.366866330E+00
  0.154740000E+00  0.279059130E+00
  0.654290000E-01  0.138048070E+00
  0.229000000E-01  0.341949500E-01
 
   2
   s  14
  0.505575010E+05  0.552699996E-04
  0.752478560E+04  0.434329997E-03
  0.169432760E+04  0.231587998E-02
  0.472822790E+03  0.987291993E-02
  0.151710750E+03  0.352194897E-01
  0.539187460E+02  0.104193749E+00
  0.206593110E+02  0.241274108E+00
  0.838397600E+01  0.384017407E+00
  0.357701500E+01  0.308237138E+00
  0.154711800E+01  0.683055395E-01
  0.613013000E+00  0.778209994E-03
  0.246068000E+00  0.990489993E-03
  0.990870000E-01 -0.892999994E-04
  0.346800000E-01  0.471399997E-04
   s  14
  0.505575010E+05 -0.120000000E-04
  0.752478560E+04 -0.940000001E-04
  0.169432760E+04 -0.502800001E-03
  0.472822790E+03 -0.214760000E-02
  0.151710750E+03 -0.779420001E-02
  0.539187460E+02 -0.237634000E-01
  0.206593110E+02 -0.600235001E-01
  0.838397600E+01 -0.115398500E+00
  0.357701500E+01 -0.153900900E+00
  0.154711800E+01 -0.145946000E-01
  0.613013000E+00  0.389584921E+00
  0.246068000E+00  0.539729071E+00
  0.990870000E-01  0.188406010E+00
  0.346800000E-01  0.258575300E-01
   p   9
  0.833331550E+02  0.122406000E-02
  0.195576110E+02  0.943894001E-02
  0.608036500E+01  0.417744100E-01
  0.217931700E+01  0.131833040E+00
  0.865150000E+00  0.278911880E+00
  0.361944000E+00  0.366866330E+00
  0.154740000E+00  0.279059130E+00
  0.654290000E-01  0.138048070E+00
  0.229000000E-01  0.341949500E-01
 
   3
   s  14
  0.505575010E+05  0.552699996E-04
  0.752478560E+04  0.434329997E-03
  0.169432760E+04  0.231587998E-02
  0.472822790E+03  0.987291993E-02
  0.151710750E+03  0.352194897E-01
  0.539187460E+02  0.104193749E+00
  0.206593110E+02  0.241274108E+00
  0.838397600E+01  0.384017407E+00
  0.357701500E+01  0.308237138E+00
  0.154711800E+01  0.683055395E-01
  0.613013000E+00  0.778209994E-03
  0.246068000E+00  0.990489993E-03
  0.990870000E-01 -0.892999994E-04
  0.346800000E-01  0.471399997E-04
   s  14
  0.505575010E+05 -0.120000000E-04
  0.752478560E+04 -0.940000001E-04
  0.169432760E+04 -0.502800001E-03
  0.472822790E+03 -0.214760000E-02
  0.151710750E+03 -0.779420001E-02
  0.539187460E+02 -0.237634000E-01
  0.206593110E+02 -0.600235001E-01
  0.838397600E+01 -0.115398500E+00
  0.357701500E+01 -0.153900900E+00
  0.154711800E+01 -0.145946000E-01
  0.613013000E+00  0.389584921E+00
  0.246068000E+00  0.539729071E+00
  0.990870000E-01  0.188406010E+00
  0.346800000E-01  0.258575300E-01
   p   9
  0.833331550E+02  0.122406000E-02
  0.195576110E+02  0.943894001E-02
  0.608036500E+01  0.417744100E-01
  0.217931700E+01  0.131833040E+00
  0.865150000E+00  0.278911880E+00
  0.361944000E+00  0.366866330E+00
  0.154740000E+00  0.279059130E+00
  0.654290000E-01  0.138048070E+00
  0.229000000E-01  0.341949500E-01
 
   4
   s  14
  0.505575010E+05  0.552699996E-04
  0.752478560E+04  0.434329997E-03
  0.169432760E+04  0.231587998E-02
  0.472822790E+03  0.987291993E-02
  0.151710750E+03  0.352194897E-01
  0.539187460E+02  0.104193749E+00
  0.206593110E+02  0.241274108E+00
  0.838397600E+01  0.384017407E+00
  0.357701500E+01  0.308237138E+00
  0.154711800E+01  0.683055395E-01
  0.613013000E+00  0.778209994E-03
  0.246068000E+00  0.990489993E-03
  0.990870000E-01 -0.892999994E-04
  0.346800000E-01  0.471399997E-04
   s  14
  0.505575010E+05 -0.120000000E-04
  0.752478560E+04 -0.940000001E-04
  0.169432760E+04 -0.502800001E-03
  0.472822790E+03 -0.214760000E-02
  0.151710750E+03 -0.779420001E-02
  0.539187460E+02 -0.237634000E-01
  0.206593110E+02 -0.600235001E-01
  0.838397600E+01 -0.115398500E+00
  0.357701500E+01 -0.153900900E+00
  0.154711800E+01 -0.145946000E-01
  0.613013000E+00  0.389584921E+00
  0.246068000E+00  0.539729071E+00
  0.990870000E-01  0.188406010E+00
  0.346800000E-01  0.258575300E-01
   p   9
  0.833331550E+02  0.122406000E-02
  0.195576110E+02  0.943894001E-02
  0.608036500E+01  0.417744100E-01
  0.217931700E+01  0.131833040E+00
  0.865150000E+00  0.278911880E+00
  0.361944000E+00  0.366866330E+00
  0.154740000E+00  0.279059130E+00
  0.654290000E-01  0.138048070E+00
  0.229000000E-01  0.341949500E-01
 
   5
   s  14
  0.505575010E+05  0.552699996E-04
  0.752478560E+04  0.434329997E-03
  0.169432760E+04  0.231587998E-02
  0.472822790E+03  0.987291993E-02
  0.151710750E+03  0.352194897E-01
  0.539187460E+02  0.104193749E+00
  0.206593110E+02  0.241274108E+00
  0.838397600E+01  0.384017407E+00
  0.357701500E+01  0.308237138E+00
  0.154711800E+01  0.683055395E-01
  0.613013000E+00  0.778209994E-03
  0.246068000E+00  0.990489993E-03
  0.990870000E-01 -0.892999994E-04
  0.346800000E-01  0.471399997E-04
   s  14
  0.505575010E+05 -0.120000000E-04
  0.752478560E+04 -0.940000001E-04
  0.169432760E+04 -0.502800001E-03
  0.472822790E+03 -0.214760000E-02
  0.151710750E+03 -0.779420001E-02
  0.539187460E+02 -0.237634000E-01
  0.206593110E+02 -0.600235001E-01
  0.838397600E+01 -0.115398500E+00
  0.357701500E+01 -0.153900900E+00
  0.154711800E+01 -0.145946000E-01
  0.613013000E+00  0.389584921E+00
  0.246068000E+00  0.539729071E+00
  0.990870000E-01  0.188406010E+00
  0.346800000E-01  0.258575300E-01
   p   9
  0.833331550E+02  0.122406000E-02
  0.195576110E+02  0.943894001E-02
  0.608036500E+01  0.417744100E-01
  0.217931700E+01  0.131833040E+00
  0.865150000E+00  0.278911880E+00
  0.361944000E+00  0.366866330E+00
  0.154740000E+00  0.279059130E+00
  0.654290000E-01  0.138048070E+00
  0.229000000E-01  0.341949500E-01
 
   6
   s  14
  0.505575010E+05  0.552699996E-04
  0.752478560E+04  0.434329997E-03
  0.169432760E+04  0.231587998E-02
  0.472822790E+03  0.987291993E-02
  0.151710750E+03  0.352194897E-01
  0.539187460E+02  0.104193749E+00
  0.206593110E+02  0.241274108E+00
  0.838397600E+01  0.384017407E+00
  0.357701500E+01  0.308237138E+00
  0.154711800E+01  0.683055395E-01
  0.613013000E+00  0.778209994E-03
  0.246068000E+00  0.990489993E-03
  0.990870000E-01 -0.892999994E-04
  0.346800000E-01  0.471399997E-04
   s  14
  0.505575010E+05 -0.120000000E-04
  0.752478560E+04 -0.940000001E-04
  0.169432760E+04 -0.502800001E-03
  0.472822790E+03 -0.214760000E-02
  0.151710750E+03 -0.779420001E-02
  0.539187460E+02 -0.237634000E-01
  0.206593110E+02 -0.600235001E-01
  0.838397600E+01 -0.115398500E+00
  0.357701500E+01 -0.153900900E+00
  0.154711800E+01 -0.145946000E-01
  0.613013000E+00  0.389584921E+00
  0.246068000E+00  0.539729071E+00
  0.990870000E-01  0.188406010E+00
  0.346800000E-01  0.258575300E-01
   p   9
  0.833331550E+02  0.122406000E-02
  0.195576110E+02  0.943894001E-02
  0.608036500E+01  0.417744100E-01
  0.217931700E+01  0.131833040E+00
  0.865150000E+00  0.278911880E+00
  0.361944000E+00  0.366866330E+00
  0.154740000E+00  0.279059130E+00
  0.654290000E-01  0.138048070E+00
  0.229000000E-01  0.341949500E-01
 
   7
   s  14
  0.505575010E+05  0.552699996E-04
  0.752478560E+04  0.434329997E-03
  0.169432760E+04  0.231587998E-02
  0.472822790E+03  0.987291993E-02
  0.151710750E+03  0.352194897E-01
  0.539187460E+02  0.104193749E+00
  0.206593110E+02  0.241274108E+00
  0.838397600E+01  0.384017407E+00
  0.357701500E+01  0.308237138E+00
  0.154711800E+01  0.683055395E-01
  0.613013000E+00  0.778209994E-03
  0.246068000E+00  0.990489993E-03
  0.990870000E-01 -0.892999994E-04
  0.346800000E-01  0.471399997E-04
   s  14
  0.505575010E+05 -0.120000000E-04
  0.752478560E+04 -0.940000001E-04
  0.169432760E+04 -0.502800001E-03
  0.472822790E+03 -0.214760000E-02
  0.151710750E+03 -0.779420001E-02
  0.539187460E+02 -0.237634000E-01
  0.206593110E+02 -0.600235001E-01
  0.838397600E+01 -0.115398500E+00
  0.357701500E+01 -0.153900900E+00
  0.154711800E+01 -0.145946000E-01
  0.613013000E+00  0.389584921E+00
  0.246068000E+00  0.539729071E+00
  0.990870000E-01  0.188406010E+00
  0.346800000E-01  0.258575300E-01
   p   9
  0.833331550E+02  0.122406000E-02
  0.195576110E+02  0.943894001E-02
  0.608036500E+01  0.417744100E-01
  0.217931700E+01  0.131833040E+00
  0.865150000E+00  0.278911880E+00
  0.361944000E+00  0.366866330E+00
  0.154740000E+00  0.279059130E+00
  0.654290000E-01  0.138048070E+00
  0.229000000E-01  0.341949500E-01
 
   8
   s   8
  0.188614450E+03  0.963850003E-03
  0.282765960E+02  0.749196002E-02
  0.642483000E+01  0.375954101E-01
  0.181504100E+01  0.143394980E+00
  0.591063000E+00  0.348636301E+00
  0.212149000E+00  0.438297361E+00
  0.798910000E-01  0.165106610E+00
  0.279620000E-01  0.210228701E-01
 
   9
   s   8
  0.188614450E+03  0.963850003E-03
  0.282765960E+02  0.749196002E-02
  0.642483000E+01  0.375954101E-01
  0.181504100E+01  0.143394980E+00
  0.591063000E+00  0.348636301E+00
  0.212149000E+00  0.438297361E+00
  0.798910000E-01  0.165106610E+00
  0.279620000E-01  0.210228701E-01
 
  10
   s   8
  0.188614450E+03  0.963850003E-03
  0.282765960E+02  0.749196002E-02
  0.642483000E+01  0.375954101E-01
  0.181504100E+01  0.143394980E+00
  0.591063000E+00  0.348636301E+00
  0.212149000E+00  0.438297361E+00
  0.798910000E-01  0.165106610E+00
  0.279620000E-01  0.210228701E-01
 
  11
   s   8
  0.188614450E+03  0.963850003E-03
  0.282765960E+02  0.749196002E-02
  0.642483000E+01  0.375954101E-01
  0.181504100E+01  0.143394980E+00
  0.591063000E+00  0.348636301E+00
  0.212149000E+00  0.438297361E+00
  0.798910000E-01  0.165106610E+00
  0.279620000E-01  0.210228701E-01
 
  12
   s   8
  0.188614450E+03  0.963850003E-03
  0.282765960E+02  0.749196002E-02
  0.642483000E+01  0.375954101E-01
  0.181504100E+01  0.143394980E+00
  0.591063000E+00  0.348636301E+00
  0.212149000E+00  0.438297361E+00
  0.798910000E-01  0.165106610E+00
  0.279620000E-01  0.210228701E-01
 
  13
   s   8
  0.188614450E+03  0.963850003E-03
  0.282765960E+02  0.749196002E-02
  0.642483000E+01  0.375954101E-01
  0.181504100E+01  0.143394980E+00
  0.591063000E+00  0.348636301E+00
  0.212149000E+00  0.438297361E+00
  0.798910000E-01  0.165106610E+00
  0.279620000E-01  0.210228701E-01
 
  14
   s   8
  0.188614450E+03  0.963850003E-03
  0.282765960E+02  0.749196002E-02
  0.642483000E+01  0.375954101E-01
  0.181504100E+01  0.143394980E+00
  0.591063000E+00  0.348636301E+00
  0.212149000E+00  0.438297361E+00
  0.798910000E-01  0.165106610E+00
  0.279620000E-01  0.210228701E-01
 
  15
   s   8
  0.188614450E+03  0.963850003E-03
  0.282765960E+02  0.749196002E-02
  0.642483000E+01  0.375954101E-01
  0.181504100E+01  0.143394980E+00
  0.591063000E+00  0.348636301E+00
  0.212149000E+00  0.438297361E+00
  0.798910000E-01  0.165106610E+00
  0.279620000E-01  0.210228701E-01
 
[MO]
Sym=     1a  
Ene=   -11.4230
Spin= Alpha
Occup=    2.00000
   1         0.04195190
   2        -0.00001139
   3         0.00007586
   4         0.00005017
   5        -0.00008879
   6         0.04199777
   7        -0.00001131
   8        -0.00007586
   9         0.00005017
  10        -0.00008878
  11        -0.02913577
  12        -0.00000551
  13        -0.00007475
  14        -0.00004871
  15        -0.00009369
  16        -0.02920619
  17        -0.00000581
  18         0.00007468
  19        -0.00004885
  20        -0.00009363
  21         0.80221301
  22         0.00151048
  23        -0.00000007
  24        -0.00045998
  25        -0.00023769
  26        -0.59265567
  27        -0.00113891
  28         0.00000043
  29         0.00036127
  30        -0.00022412
  31         0.00226637
  32        -0.00005889
  33        -0.00000004
  34         0.00005700
  35        -0.00039972
  36        -0.00002489
  37        -0.00002489
  38        -0.00000230
  39        -0.00000233
  40         0.00026086
  41        -0.00023408
  42        -0.00000352
  43        -0.00000349
Sym=     2a  
Ene=   -11.4230
Spin= Alpha
Occup=    2.00000
   1         0.03762411
   2        -0.00005541
   3        -0.00000697
   4        -0.00000232
   5         0.00002947
   6         0.03770069
   7        -0.00005524
   8         0.00000686
   9        -0.00000237
  10         0.00002938
  11         0.04839764
  12        -0.00005626
  13         0.00001586
  14         0.00001255
  15        -0.00000183
  16         0.04855112
  17        -0.00005573
  18        -0.00001588
  19         0.00001264
  20        -0.00000182
  21         0.59159733
  22         0.00103511
  23        -0.00000006
  24        -0.00026841
  25        -0.00000916
  26         0.80140530
  27         0.00143320
  28        -0.00000061
  29        -0.00039302
  30         0.00007792
  31         0.01499817
  32        -0.00039175
  33         0.00000003
  34         0.00038231
  35         0.00006047
  36        -0.00008891
  37        -0.00008889
  38        -0.00009236
  39        -0.00009226
  40         0.00005146
  41         0.00012604
  42        -0.00002261
  43        -0.00002259
Sym=     3a  
Ene=   -11.4190
Spin= Alpha
Occup=    2.00000
   1         0.44798739
   2         0.00077767
   3         0.00030452
   4        -0.00001489
   5        -0.00033945
   6        -0.54495258
   7        -0.00091754
   8         0.00033575
   9         0.00002324
  10         0.00041255
  11         0.44793572
  12         0.00077801
  13         0.00030536
  14        -0.00001514
  15         0.00033938
  16        -0.54876330
  17        -0.00092525
  18         0.00033684
  19         0.00002252
  20        -0.00041459
  21         0.00608192
  22         0.00002668
  23         0.00001839
  24        -0.00000858
  25        -0.00001975
  26         0.00634236
  27         0.00002709
  28         0.00001805
  29        -0.00000827
  30         0.00001948
  31         0.00029360
  32         0.00000361
  33         0.00024963
  34        -0.00001887
  35         0.00000000
  36         0.00011563
  37        -0.00012932
  38         0.00011558
  39        -0.00013051
  40         0.00001082
  41         0.00001091
  42         0.00006532
  43        -0.00004335
Sym=     4a  
Ene=   -11.4190
Spin= Alpha
Occup=    2.00000
   1         0.54529301
   2         0.00080580
   3         0.00018727
   4        -0.00003715
   5        -0.00040821
   6         0.44426665
   7         0.00063257
   8        -0.00012343
   9        -0.00003448
  10        -0.00033221
  11         0.54503468
  12         0.00080544
  13         0.00018760
  14        -0.00003731
  15         0.00040802
  16         0.44748119
  17         0.00063910
  18        -0.00012427
  19        -0.00003385
  20         0.00033398
  21        -0.06126957
  22        -0.00026839
  23         0.00000173
  24         0.00008378
  25         0.00019622
  26        -0.06163148
  27        -0.00026927
  28         0.00000208
  29         0.00008385
  30        -0.00019609
  31        -0.00293388
  32        -0.00003817
  33         0.00002504
  34         0.00019026
  35        -0.00000008
  36         0.00008417
  37         0.00005910
  38         0.00008413
  39         0.00006012
  40        -0.00010936
  41        -0.00010952
  42        -0.00010530
  43        -0.00011605
Sym=     5a  
Ene=   -11.4170
Spin= Alpha
Occup=    2.00000
   1        -0.42193332
   2        -0.00088287
   3        -0.00015762
   4        -0.00002977
   5         0.00023903
   6         0.56954067
   7         0.00117059
   8        -0.00018221
   9         0.00004593
  10        -0.00032252
  11         0.42212828
  12         0.00088285
  13         0.00015828
  14         0.00002830
  15         0.00023913
  16        -0.56546862
  17        -0.00116443
  18         0.00018060
  19        -0.00004636
  20        -0.00031928
  21        -0.00759038
  22        -0.00001300
  23         0.00010939
  24        -0.00000963
  25        -0.00001038
  26         0.00738923
  27         0.00001189
  28        -0.00010950
  29         0.00001004
  30        -0.00001134
  31        -0.00000625
  32        -0.00000009
  33        -0.00000058
  34         0.00000051
  35        -0.00000417
  36        -0.00012630
  37         0.00017108
  38         0.00012612
  39        -0.00017036
  40        -0.00000240
  41         0.00000202
  42        -0.00000025
  43        -0.00000019
Sym=     6a  
Ene=   -11.4170
Spin= Alpha
Occup=    2.00000
   1        -0.56634712
   2        -0.00111688
   3        -0.00010404
   4        -0.00006543
   5         0.00031848
   6        -0.42199715
   7        -0.00081727
   8         0.00005573
   9        -0.00005307
  10         0.00023715
  11         0.56647755
  12         0.00111770
  13         0.00010623
  14         0.00006357
  15         0.00031853
  16         0.41909898
  17         0.00081247
  18        -0.00005419
  19         0.00005327
  20         0.00023498
  21         0.05052141
  22         0.00008458
  23         0.00001603
  24         0.00006684
  25         0.00007373
  26        -0.05049682
  27        -0.00008424
  28        -0.00001608
  29        -0.00006675
  30         0.00007424
  31         0.00000363
  32         0.00000018
  33         0.00000030
  34        -0.00000027
  35         0.00002864
  36        -0.00017283
  37        -0.00012944
  38         0.00017302
  39         0.00012883
  40         0.00001521
  41        -0.00001481
  42         0.00000034
  43         0.00000000
Sym=     7a  
Ene=   -11.4010
Spin= Alpha
Occup=    2.00000
   1         0.00081313
   2        -0.00001163
   3        -0.00002653
   4        -0.00004280
   5         0.00003385
   6         0.00081271
   7        -0.00001161
   8         0.00002653
   9        -0.00004283
  10         0.00003387
  11         0.00081312
  12        -0.00001160
  13        -0.00002637
  14        -0.00004285
  15        -0.00003394
  16         0.00081178
  17        -0.00001153
  18         0.00002634
  19        -0.00004280
  20        -0.00003391
  21        -0.01103344
  22        -0.00024126
  23         0.00000002
  24        -0.00021330
  25         0.00012361
  26        -0.01101917
  27        -0.00024133
  28        -0.00000002
  29        -0.00021400
  30        -0.00012447
  31         0.99992057
  32         0.00183539
  33        -0.00000013
  34         0.00002725
  35         0.00000160
  36        -0.00006703
  37        -0.00006707
  38        -0.00006716
  39        -0.00006713
  40        -0.00004000
  41        -0.00003965
  42         0.00008154
  43         0.00008164
Sym=     8a  
Ene=    -1.2446
Spin= Alpha
Occup=    2.00000
   1        -0.03755688
   2         0.23701849
   3         0.06420684
   4         0.04161998
   5        -0.07206609
   6        -0.03754585
   7         0.23695013
   8        -0.06421034
   9         0.04155587
  10        -0.07204253
  11        -0.03756645
  12         0.23708211
  13         0.06428034
  14         0.04161605
  15         0.07203498
  16        -0.03754839
  17         0.23696798
  18        -0.06422359
  19         0.04161168
  20         0.07201103
  21        -0.03324668
  22         0.19648762
  23        -0.00001580
  24        -0.10539067
  25        -0.00915903
  26        -0.03326330
  27         0.19661100
  28        -0.00007133
  29        -0.10539515
  30         0.00925001
  31        -0.01942022
  32         0.00583947
  33        -0.00001216
  34         0.06240641
  35        -0.00001466
  36         0.01970751
  37         0.01968768
  38         0.01970694
  39         0.01969793
  40         0.02568035
  41         0.02569691
  42         0.01209449
  43         0.01210292
Sym=     9a  
Ene=    -1.1145
Spin= Alpha
Occup=    2.00000
   1         0.03710481
   2        -0.33457562
   3        -0.04637712
   4        -0.00809468
   5         0.12449024
   6        -0.03712571
   7         0.33474263
   8        -0.04643313
   9         0.00801818
  10        -0.12453583
  11         0.03711506
  12        -0.33466868
  13        -0.04644786
  14        -0.00810765
  15        -0.12446503
  16        -0.03712354
  17         0.33471066
  18        -0.04642915
  19         0.00809111
  20         0.12453520
  21        -0.00000561
  22         0.00008021
  23         0.10317417
  24        -0.00002077
  25        -0.00000392
  26         0.00000772
  27        -0.00006536
  28         0.10322153
  29         0.00000849
  30         0.00000207
  31         0.00000369
  32        -0.00000794
  33         0.00887327
  34        -0.00000320
  35        -0.00000028
  36        -0.05746285
  37         0.05748486
  38        -0.05747382
  39         0.05748687
  40         0.00001659
  41        -0.00001361
  42         0.00164295
  43        -0.00165292
Sym=    10a  
Ene=    -1.0342
Spin= Alpha
Occup=    2.00000
   1         0.01538485
   2        -0.19476337
   3        -0.08142867
   4        -0.04232876
   5        -0.05948380
   6         0.01536419
   7        -0.19455112
   8         0.08142352
   9        -0.04229386
  10        -0.05951309
  11        -0.01536708
  12         0.19453913
  13         0.08150093
  14         0.04223562
  15        -0.05963895
  16        -0.01536725
  17         0.19456225
  18        -0.08141728
  19         0.04223307
  20        -0.05953086
  21         0.02972931
  22        -0.40443996
  23         0.00005312
  24         0.12358385
  25        -0.01695422
  26        -0.02973208
  27         0.40447176
  28        -0.00008123
  29        -0.12354071
  30        -0.01684798
  31         0.00000974
  32        -0.00002338
  33        -0.00000725
  34        -0.00002873
  35         0.02654820
  36        -0.03546735
  37        -0.03542080
  38         0.03542603
  39         0.03543357
  40        -0.09801395
  41         0.09800319
  42        -0.00001656
  43        -0.00002568
Sym=    11a  
Ene=    -0.9238
Spin= Alpha
Occup=    2.00000
   1         0.01416653
   2        -0.14126483
   3         0.08164033
   4         0.05353518
   5         0.10652931
   6         0.01415448
   7        -0.14108743
   8        -0.08163110
   9         0.05362480
  10         0.10650495
  11         0.01415712
  12        -0.14117254
  13         0.08166851
  14         0.05353283
  15        -0.10658147
  16         0.01415936
  17        -0.14117640
  18        -0.08160302
  19         0.05353223
  20        -0.10650859
  21        -0.01542929
  22         0.22521656
  23         0.00003485
  24        -0.04969254
  25         0.10005702
  26        -0.01542409
  27         0.22523156
  28        -0.00006123
  29        -0.04972148
  30        -0.09996834
  31        -0.02821545
  32         0.35869883
  33        -0.00003506
  34         0.21582991
  35        -0.00007706
  36        -0.06150488
  37        -0.06146353
  38        -0.06148390
  39        -0.06148326
  40         0.09219496
  41         0.09217217
  42         0.16815976
  43         0.16814203
Sym=    12a  
Ene=    -0.8419
Spin= Alpha
Occup=    2.00000
   1        -0.00382570
   2         0.10621962
   3        -0.09478625
   4        -0.07187614
   5        -0.09375514
   6        -0.00376777
   7         0.10506524
   8         0.09478824
   9        -0.07194159
  10        -0.09421573
  11        -0.00376990
  12         0.10512697
  13        -0.09481439
  14        -0.07184493
  15         0.09426604
  16        -0.00382827
  17         0.10627249
  18         0.09476645
  19        -0.07187888
  20         0.09374480
  21         0.01368273
  22        -0.26395669
  23        -0.00037695
  24         0.04575698
  25        -0.02432867
  26         0.01368512
  27        -0.26387157
  28         0.00039099
  29         0.04572031
  30         0.02430752
  31        -0.01609173
  32         0.44871587
  33        -0.00005755
  34         0.26277090
  35        -0.00008749
  36         0.04339898
  37         0.04288686
  38         0.04290559
  39         0.04343418
  40        -0.09125329
  41        -0.09123176
  42         0.20801198
  43         0.20797904
Sym=    13a  
Ene=    -0.8356
Spin= Alpha
Occup=    2.00000
   1        -0.01524633
   2         0.31772089
   3         0.00033905
   4        -0.00453764
   5         0.13994948
   6         0.01526608
   7        -0.31821459
   8         0.00003757
   9         0.00490821
  10        -0.13961334
  11         0.01526320
  12        -0.31808268
  13        -0.00010012
  14         0.00498584
  15         0.13966263
  16        -0.01524800
  17         0.31778680
  18        -0.00045842
  19        -0.00471319
  20        -0.14004944
  21        -0.00002512
  22         0.00046551
  23        -0.20826695
  24        -0.00006841
  25         0.00005926
  26        -0.00002571
  27         0.00057969
  28         0.20834764
  29        -0.00012445
  30        -0.00007063
  31         0.00002503
  32        -0.00076193
  33        -0.00003457
  34        -0.00044110
  35         0.00000099
  36         0.14657443
  37        -0.14678600
  38        -0.14673958
  39         0.14661362
  40         0.00017267
  41         0.00020903
  42        -0.00034618
  43        -0.00035816
Sym=    14a  
Ene=    -0.7615
Spin= Alpha
Occup=    2.00000
   1         0.00835430
   2         0.09370659
   3        -0.15604238
   4        -0.11707029
   5         0.16241811
   6         0.00835170
   7         0.09367781
   8         0.15594989
   9        -0.11710791
  10         0.16233913
  11         0.00835009
  12         0.09379560
  13        -0.15609971
  14        -0.11716942
  15        -0.16244522
  16         0.00834759
  17         0.09377414
  18         0.15602756
  19        -0.11724948
  20        -0.16230018
  21         0.01033596
  22         0.14151004
  23        -0.00001344
  24         0.13632115
  25         0.20848871
  26         0.01034299
  27         0.14140271
  28        -0.00000863
  29         0.13621047
  30        -0.20852043
  31         0.01527547
  32         0.01096944
  33         0.00003723
  34        -0.04479445
  35         0.00001101
  36         0.14317881
  37         0.14313861
  38         0.14326673
  39         0.14322282
  40         0.15162547
  41         0.15155413
  42        -0.02680592
  43        -0.02678552
Sym=    15a  
Ene=    -0.7326
Spin= Alpha
Occup=    2.00000
   1         0.00790023
   2        -0.23262820
   3         0.11480508
   4         0.08027720
   5        -0.11412052
   6         0.00790311
   7        -0.23255394
   8        -0.11461286
   9         0.08030352
  10        -0.11394599
  11        -0.00790992
  12         0.23253658
  13        -0.11455839
  14        -0.08029336
  15        -0.11383750
  16        -0.00790410
  17         0.23254179
  18         0.11467036
  19        -0.08040997
  20        -0.11396452
  21        -0.00916191
  22         0.21141728
  23        -0.00002193
  24         0.05506928
  25         0.20345460
  26         0.00915703
  27        -0.21145685
  28        -0.00004547
  29        -0.05501949
  30         0.20354749
  31        -0.00000163
  32        -0.00003157
  33        -0.00004837
  34        -0.00000746
  35        -0.01831412
  36        -0.19368339
  37        -0.19354998
  38         0.19350221
  39         0.19359752
  40         0.20484334
  41        -0.20488423
  42         0.00000846
  43        -0.00002933
Sym=    16a  
Ene=    -0.7239
Spin= Alpha
Occup=    2.00000
   1         0.00424326
   2         0.06689432
   3        -0.21456296
   4        -0.14464163
   5         0.09328897
   6        -0.00424258
   7        -0.06699430
   8        -0.21460754
   9         0.14480493
  10        -0.09346027
  11         0.00424392
  12         0.06702256