[Molden Format]
[Atoms] Angs
NE    1   10         0.0000000000        0.0000000000        0.0000000000
[GTO]
   1 0
 s    6  1.00
  0.1399570000D+05  0.1832760156D-02
  0.2117100000D+04  0.1388270118D-01
  0.4904250000D+03  0.6806870579D-01
  0.1438330000D+03  0.2313280197D+00
  0.4192650000D+02  0.5858900499D+00
  0.6156840000D+01  0.3058830260D+00
 s    3  1.00
  0.6912110000D+02  0.1191490559D+00
  0.1583500000D+02  0.9173754306D+00
  0.4673260000D+01 -0.4058391905D-02
 s    1  1.00
  0.1457560000D+01  0.1000000000D+01
 s    1  1.00
  0.3970570000D+00  0.1000000000D+01
 p    3  1.00
  0.6912110000D+02  0.3565740367D-01
  0.1583500000D+02  0.2394770247D+00
  0.4673260000D+01  0.8184610843D+00
 p    1  1.00
  0.1457560000D+01  0.1000000000D+01
 p    1  1.00
  0.3970570000D+00  0.1000000000D+01


[MO]
 Sym=      1.1
 Ene=     -31.7144
 Spin= Alpha
 Occup=    1.999997
1 0.55882373264777
2 0.50764557946657
3 -0.11601358519415
4 -0.085824589173329
5 0.0
6 0.0
7 0.0
8 0.0
9 0.0
10 0.0
11 0.0
12 0.0
13 0.0
 Sym=      2.1
 Ene=      -0.8434
 Spin= Alpha
 Occup=    1.999963
1 0.0
2 0.0
3 0.0
4 0.0
5 0.0
6 0.32886268241502
7 0.0
8 0.0
9 0.48319651655662
10 0.0
11 0.0
12 0.41425272658038
13 0.0
 Sym=      3.1
 Ene=      -0.8434
 Spin= Alpha
 Occup=    1.999963
1 0.0
2 0.0
3 0.0
4 0.0
5 0.0
6 0.0
7 0.32886268241502
8 0.0
9 0.0
10 0.48319651655661
11 0.0
12 0.0
13 0.41425272658038
 Sym=      6.1
 Ene=       2.0905
 Spin= Alpha
 Occup=    0.004968
1 0.0
2 0.0
3 0.0
4 0.0
5 -0.62960512475347
6 0.0
7 0.0
8 -0.28717377623597
9 0.0
10 0.0
11 0.91531040372969
12 0.0
13 0.0
 Sym=      4.1
 Ene=      -2.9680
 Spin= Alpha
 Occup=    1.999927
1 -0.026167249390550
2 -0.12603939969730
3 0.65304428755239
4 0.45622286705924
5 0.0
6 0.0
7 0.0
8 0.0
9 0.0
10 0.0
11 0.0
12 0.0
13 0.0
 Sym=      5.1
 Ene=      -0.8406
 Spin= Alpha
 Occup=    1.995182
1 0.0
2 0.0
3 0.0
4 0.0
5 0.32938104155399
6 0.0
7 0.0
8 0.47912366707398
9 0.0
10 0.0
11 0.41871656159655
12 0.0
13 0.0
 Sym=      7.1
 Ene=       1.4086
 Spin= Alpha
 Occup=   -0.000000
1 0.0
2 0.0
3 0.0
4 0.0
5 0.0
6 -0.24353938613371
7 0.0
8 0.0
9 -0.75790135688040
10 0.0
11 0.0
12 1.14036455030736
13 0.0
 Sym=      8.1
 Ene=       1.4086
 Spin= Alpha
 Occup=   -0.000000
1 0.0
2 0.0
3 0.0
4 0.0
5 0.0
6 0.0
7 -0.24353938613371
8 0.0
9 0.0
10 -0.75790135688040
11 0.0
12 0.0
13 1.14036455030736
 Sym=      9.1
 Ene=       1.5892
 Spin= Alpha
 Occup=   -0.000000
1 0.11599162060963
2 0.23313626567298
3 -1.49628621912770
4 1.45467651379875
5 0.0
6 0.0
7 0.0
8 0.0
9 0.0
10 0.0
11 0.0
12 0.0
13 0.0
 Sym=     10.1
 Ene=       7.4104
 Spin= Alpha
 Occup=   -0.000000
1 0.0
2 0.0
3 0.0
4 0.0
5 1.10102912649074
6 0.0
7 0.0
8 -1.52505562729968
9 0.0
10 0.0
11 0.84987843489260
12 0.0
13 0.0
 Sym=     11.1
 Ene=       8.0938
 Spin= Alpha
 Occup=   -0.000000
1 0.0
2 0.0
3 0.0
4 0.0
5 0.0
6 1.24486847680725
7 0.0
8 0.0
9 -1.35274890208525
10 0.0
11 0.0
12 0.51319920026200
13 0.0
 Sym=     12.1
 Ene=       8.0938
 Spin= Alpha
 Occup=   -0.000000
1 0.0
2 0.0
3 0.0
4 0.0
5 0.0
6 0.0
7 1.24486847680725
8 0.0
9 0.0
10 -1.35274890208525
11 0.0
12 0.0
13 0.51319920026200
 Sym=     13.1
 Ene=      86.8715
 Spin= Alpha
 Occup=   -0.000000
1 -2.37248237116434
2 2.42515418926966
3 -0.13560376224781
4 0.092820937356632
5 0.0
6 0.0
7 0.0
8 0.0
9 0.0
10 0.0
11 0.0
12 0.0
13 0.0
