[Molden Format]
[Atoms] Angs
O     1    8         0.0000000000        0.0000000000        1.2000000000
O     2    8         0.0000000000        0.0000000000        0.0000000000
[GTO]
   1 0
 s   10  1.00
  0.1533000000D+05  0.5079996682D-03
  0.2299000000D+04  0.3928997434D-02
  0.5224000000D+03  0.2024298678D-01
  0.1473000000D+03  0.7918094828D-01
  0.4755000000D+02  0.2306868493D+00
  0.1676000000D+02  0.4331177171D+00
  0.6207000000D+01  0.3502597712D+00
  0.1752000000D+01  0.4272797209D-01
  0.6882000000D+00 -0.8153994674D-02
  0.2384000000D+00  0.2380998445D-02
 s   10  1.00
  0.1533000000D+05 -0.1150000604D-03
  0.2299000000D+04 -0.8950004697D-03
  0.5224000000D+03 -0.4636002433D-02
  0.1473000000D+03 -0.1872400983D-01
  0.4755000000D+02 -0.5846303068D-01
  0.1676000000D+02 -0.1364630716D+00
  0.6207000000D+01 -0.1757400922D+00
  0.1752000000D+01  0.1609340845D+00
  0.6882000000D+00  0.6034183167D+00
  0.2384000000D+00  0.3787651988D+00
 s   10  1.00
  0.1533000000D+05  0.0000000000D+00
  0.2299000000D+04  0.0000000000D+00
  0.5224000000D+03  0.0000000000D+00
  0.1473000000D+03  0.0000000000D+00
  0.4755000000D+02  0.0000000000D+00
  0.1676000000D+02  0.0000000000D+00
  0.6207000000D+01  0.0000000000D+00
  0.1752000000D+01  0.1000000000D+01
  0.6882000000D+00  0.0000000000D+00
  0.2384000000D+00  0.0000000000D+00
 s   10  1.00
  0.1533000000D+05  0.0000000000D+00
  0.2299000000D+04  0.0000000000D+00
  0.5224000000D+03  0.0000000000D+00
  0.1473000000D+03  0.0000000000D+00
  0.4755000000D+02  0.0000000000D+00
  0.1676000000D+02  0.0000000000D+00
  0.6207000000D+01  0.0000000000D+00
  0.1752000000D+01  0.0000000000D+00
  0.6882000000D+00  0.0000000000D+00
  0.2384000000D+00  0.1000000000D+01
 s    1  1.00
  0.7376000000D-01  0.1000000000D+01
 p    5  1.00
  0.3446000000D+02  0.1592799074D-01
  0.7749000000D+01  0.9973994203D-01
  0.2280000000D+01  0.3104918195D+00
  0.7156000000D+00  0.4910257146D+00
  0.2140000000D+00  0.3363368045D+00
 p    5  1.00
  0.3446000000D+02  0.0000000000D+00
  0.7749000000D+01  0.0000000000D+00
  0.2280000000D+01  0.0000000000D+00
  0.7156000000D+00  0.1000000000D+01
  0.2140000000D+00  0.0000000000D+00
 p    5  1.00
  0.3446000000D+02  0.0000000000D+00
  0.7749000000D+01  0.0000000000D+00
  0.2280000000D+01  0.0000000000D+00
  0.7156000000D+00  0.0000000000D+00
  0.2140000000D+00  0.1000000000D+01
 p    1  1.00
  0.5974000000D-01  0.1000000000D+01
 d    1  1.00
  0.2314000000D+01  0.1000000000D+01
 d    1  1.00
  0.6450000000D+00  0.1000000000D+01
 d    1  1.00
  0.2140000000D+00  0.1000000000D+01
 f    1  1.00
  0.1428000000D+01  0.1000000000D+01
 f    1  1.00
  0.5000000000D+00  0.1000000000D+01
  
   2 0
 s   10  1.00
  0.1533000000D+05  0.5079996682D-03
  0.2299000000D+04  0.3928997434D-02
  0.5224000000D+03  0.2024298678D-01
  0.1473000000D+03  0.7918094828D-01
  0.4755000000D+02  0.2306868493D+00
  0.1676000000D+02  0.4331177171D+00
  0.6207000000D+01  0.3502597712D+00
  0.1752000000D+01  0.4272797209D-01
  0.6882000000D+00 -0.8153994674D-02
  0.2384000000D+00  0.2380998445D-02
 s   10  1.00
  0.1533000000D+05 -0.1150000604D-03
  0.2299000000D+04 -0.8950004697D-03
  0.5224000000D+03 -0.4636002433D-02
  0.1473000000D+03 -0.1872400983D-01
  0.4755000000D+02 -0.5846303068D-01
  0.1676000000D+02 -0.1364630716D+00
  0.6207000000D+01 -0.1757400922D+00
  0.1752000000D+01  0.1609340845D+00
  0.6882000000D+00  0.6034183167D+00
  0.2384000000D+00  0.3787651988D+00
 s   10  1.00
  0.1533000000D+05  0.0000000000D+00
  0.2299000000D+04  0.0000000000D+00
  0.5224000000D+03  0.0000000000D+00
  0.1473000000D+03  0.0000000000D+00
  0.4755000000D+02  0.0000000000D+00
  0.1676000000D+02  0.0000000000D+00
  0.6207000000D+01  0.0000000000D+00
  0.1752000000D+01  0.1000000000D+01
  0.6882000000D+00  0.0000000000D+00
  0.2384000000D+00  0.0000000000D+00
 s   10  1.00
  0.1533000000D+05  0.0000000000D+00
  0.2299000000D+04  0.0000000000D+00
  0.5224000000D+03  0.0000000000D+00
  0.1473000000D+03  0.0000000000D+00
  0.4755000000D+02  0.0000000000D+00
  0.1676000000D+02  0.0000000000D+00
  0.6207000000D+01  0.0000000000D+00
  0.1752000000D+01  0.0000000000D+00
  0.6882000000D+00  0.0000000000D+00
  0.2384000000D+00  0.1000000000D+01
 s    1  1.00
  0.7376000000D-01  0.1000000000D+01
 p    5  1.00
  0.3446000000D+02  0.1592799074D-01
  0.7749000000D+01  0.9973994203D-01
  0.2280000000D+01  0.3104918195D+00
  0.7156000000D+00  0.4910257146D+00
  0.2140000000D+00  0.3363368045D+00
 p    5  1.00
  0.3446000000D+02  0.0000000000D+00
  0.7749000000D+01  0.0000000000D+00
  0.2280000000D+01  0.0000000000D+00
  0.7156000000D+00  0.1000000000D+01
  0.2140000000D+00  0.0000000000D+00
 p    5  1.00
  0.3446000000D+02  0.0000000000D+00
  0.7749000000D+01  0.0000000000D+00
  0.2280000000D+01  0.0000000000D+00
  0.7156000000D+00  0.0000000000D+00
  0.2140000000D+00  0.1000000000D+01
 p    1  1.00
  0.5974000000D-01  0.1000000000D+01
 d    1  1.00
  0.2314000000D+01  0.1000000000D+01
 d    1  1.00
  0.6450000000D+00  0.1000000000D+01
 d    1  1.00
  0.2140000000D+00  0.1000000000D+01
 f    1  1.00
  0.1428000000D+01  0.1000000000D+01
 f    1  1.00
  0.5000000000D+00  0.1000000000D+01


[MO]
 Sym=      4.1
 Ene=     -20.7157
 Spin= Alpha
 Occup=    2.000000
1 0.70658917175749
2 0.000028710716194
3 0.000440722294513
4 0.000193630170018
5 -0.000073137192309
6 0.0
7 0.0
8 -0.004449790713005
9 0.0
10 0.0
11 0.002668530581464
12 0.0
13 0.0
14 0.000447717938449
15 0.0
16 0.0
17 -0.000103196250658
18 -0.000100938010598
19 -0.000100938010598
20 0.000201876021195
21 0.0
22 0.0
23 0.0
24 0.000026402968935
25 0.000026402968935
26 -0.000052805937869
27 0.0
28 0.0
29 0.0
30 -0.000392974601860
31 -0.000392974601860
32 0.000785949203721
33 0.0
34 0.0
35 0.0
36 0.0
37 0.0
38 0.000080476342851
39 0.0
40 0.0
41 -0.000053985171959
42 0.0
43 0.0
44 -0.000053985171959
45 0.0
46 0.0
47 0.0
48 -0.000156252490834
49 0.0
50 0.0
51 0.000104817357348
52 0.0
53 0.0
54 0.000104817357348
55 0.0
56 0.70658917176766
57 0.000028710716519
58 0.000440722294453
59 0.000193630169957
60 -0.000073137192453
61 0.0
62 0.0
63 0.004449790713350
64 0.0
65 0.0
66 -0.002668530581620
67 0.0
68 0.0
69 -0.000447717938318
70 0.0
71 0.0
72 0.000103196250463
73 -0.000100938010591
74 -0.000100938010591
75 0.000201876021182
76 0.0
77 0.0
78 0.0
79 0.000026402968906
80 0.000026402968906
81 -0.000052805937811
82 0.0
83 0.0
84 0.0
85 -0.000392974601870
86 -0.000392974601870
87 0.000785949203739
88 0.0
89 0.0
90 0.0
91 0.0
92 0.0
93 -0.000080476342839
94 0.0
95 0.0
96 0.000053985171950
97 0.0
98 0.0
99 0.000053985171950
100 0.0
101 0.0
102 0.0
103 0.000156252490851
104 0.0
105 0.0
106 -0.000104817357359
107 0.0
108 0.0
109 -0.000104817357359
110 0.0
 Sym=      3.1
 Ene=     -10.6474
 Spin= Alpha
 Occup=    2.000000
1 0.49192633262068
2 -0.68684096320341
3 0.001835169840086
4 -0.055764635541007
5 -0.031150743390755
6 0.0
7 0.0
8 -0.12550212879378
9 0.0
10 0.0
11 0.012885160188123
12 0.0
13 0.0
14 0.039906397182585
15 0.0
16 0.0
17 0.002137451384712
18 -0.000159494687288
19 -0.000159494687288
20 0.000318989374576
21 0.0
22 0.0
23 0.0
24 0.001453214185378
25 0.001453214185378
26 -0.002906428370756
27 0.0
28 0.0
29 0.0
30 0.002671237814746
31 0.002671237814746
32 -0.005342475629493
33 0.0
34 0.0
35 0.0
36 0.0
37 0.0
38 0.001527766956067
39 0.0
40 0.0
41 -0.001024857230263
42 0.0
43 0.0
44 -0.001024857230263
45 0.0
46 0.0
47 0.0
48 0.001187922298983
49 0.0
50 0.0
51 -0.000796882503754
52 0.0
53 0.0
54 -0.000796882503754
55 0.0
56 -0.48655677376801
57 0.17143399178653
58 0.000809642200538
59 0.092991831209859
60 0.026693851211929
61 0.0
62 0.0
63 -0.14260130342470
64 0.0
65 0.0
66 0.012514096895048
67 0.0
68 0.0
69 0.066587102298295
70 0.0
71 0.0
72 0.004787474673178
73 0.002494280373948
74 0.002494280373948
75 -0.004988560747896
76 0.0
77 0.0
78 0.0
79 0.003564960435463
80 0.003564960435463
81 -0.007129920870926
82 0.0
83 0.0
84 0.0
85 -0.003557058083878
86 -0.003557058083878
87 0.007114116167757
88 0.0
89 0.0
90 0.0
91 0.0
92 0.0
93 -0.001521667695693
94 0.0
95 0.0
96 0.001020765722020
97 0.0
98 0.0
99 0.001020765722020
100 0.0
101 0.0
102 0.0
103 -0.000511306477097
104 0.0
105 0.0
106 0.000342994812038
107 0.0
108 0.0
109 0.000342994812038
110 0.0
 Sym=      1.1
 Ene=      -1.5503
 Spin= Alpha
 Occup=    2.000000
1 0.019231835010467
2 0.20889561184147
3 -0.004481505936424
4 -0.13205919052976
5 -0.022834032001602
6 0.0
7 0.0
8 -0.29760493805124
9 0.0
10 0.0
11 0.007661995778967
12 0.0
13 0.0
14 0.086135462945982
15 0.0
16 0.0
17 0.005314291815460
18 -0.005534044638197
19 -0.005534044638197
20 0.011068089276395
21 0.0
22 0.0
23 0.0
24 -0.010569167289652
25 -0.010569167289652
26 0.021138334579303
27 0.0
28 0.0
29 0.0
30 0.001644296021820
31 0.001644296021820
32 -0.003288592043640
33 0.0
34 0.0
35 0.0
36 0.0
37 0.0
38 -0.005505151685997
39 0.0
40 0.0
41 0.003692968018901
42 0.0
43 0.0
44 0.003692968018901
45 0.0
46 0.0
47 0.0
48 -0.002321772997078
49 0.0
50 0.0
51 0.001557492674937
52 0.0
53 0.0
54 0.001557492674937
55 0.0
56 -0.033316062692716
57 0.89000956542141
58 -0.003781342519473
59 -0.013444227981817
60 0.021077612019745
61 0.0
62 0.0
63 0.087943665200752
64 0.0
65 0.0
66 0.007104278024715
67 0.0
68 0.0
69 -0.003532817124702
70 0.0
71 0.0
72 -0.000241712645194
73 -0.003404297410021
74 -0.003404297410021
75 0.006808594820042
76 0.0
77 0.0
78 0.0
79 -0.008034214494292
80 -0.008034214494292
81 0.016068428988584
82 0.0
83 0.0
84 0.0
85 -0.003258079112146
86 -0.003258079112146
87 0.006516158224291
88 0.0
89 0.0
90 0.0
91 0.0
92 0.0
93 0.005364534604693
94 0.0
95 0.0
96 -0.003598639213123
97 0.0
98 0.0
99 -0.003598639213123
100 0.0
101 0.0
102 0.0
103 0.002448374434290
104 0.0
105 0.0
106 -0.001642419500834
107 0.0
108 0.0
109 -0.001642419500834
110 0.0
 Sym=      2.1
 Ene=      -1.3434
 Spin= Alpha
 Occup=    2.000000
1 -0.11596532771592
2 -0.062876174094478
3 0.003723788830619
4 0.079666409439923
5 0.009958088457693
6 0.0
7 0.0
8 0.58484980625539
9 0.0
10 0.0
11 0.000583410324192
12 0.0
13 0.0
14 -0.031083149022173
15 0.0
16 0.0
17 0.002200906789766
18 0.006154510093418
19 0.006154510093418
20 -0.012309020186836
21 0.0
22 0.0
23 0.0
24 0.012528024961725
25 0.012528024961725
26 -0.025056049923450
27 0.0
28 0.0
29 0.0
30 0.008105019174148
31 0.008105019174148
32 -0.016210038348295
33 0.0
34 0.0
35 0.0
36 0.0
37 0.0
38 0.007271534073150
39 0.0
40 0.0
41 -0.004877893346481
42 0.0
43 0.0
44 -0.004877893346481
45 0.0
46 0.0
47 0.0
48 0.001660470309531
49 0.0
50 0.0
51 -0.001113877346019
52 0.0
53 0.0
54 -0.001113877346019
55 0.0
56 0.12304134468558
57 0.32284859325161
58 0.004682365306728
59 0.14704920815088
60 0.034086026391064
61 0.0
62 0.0
63 -0.70243262178972
64 0.0
65 0.0
66 0.005777877672395
67 0.0
68 0.0
69 0.077153539079435
70 0.0
71 0.0
72 0.000514756633533
73 0.007369434655354
74 0.007369434655354
75 -0.014738869310708
76 0.0
77 0.0
78 0.0
79 0.014282541359288
80 0.014282541359288
81 -0.028565082718576
82 0.0
83 0.0
84 0.0
85 0.005343695849302
86 0.005343695849302
87 -0.010687391698603
88 0.0
89 0.0
90 0.0
91 0.0
92 0.0
93 -0.007405167544904
94 0.0
95 0.0
96 0.004967537404554
97 0.0
98 0.0
99 0.004967537404554
100 0.0
101 0.0
102 0.0
103 -0.001741113686148
104 0.0
105 0.0
106 0.001167974567635
107 0.0
108 0.0
109 0.001167974567635
110 0.0
 Sym=      7.1
 Ene=      -0.6921
 Spin= Alpha
 Occup=    1.924773
1 0.0
2 0.0
3 0.0
4 0.0
5 0.0
6 0.0
7 0.65145593971610
8 0.0
9 0.0
10 0.005005123916170
11 0.0
12 0.0
13 -0.035320643422300
14 0.0
15 0.0
16 0.004023371484310
17 0.0
18 0.0
19 0.0
20 0.0
21 0.0
22 0.0
23 -0.009514007528332
24 0.0
25 0.0
26 0.0
27 0.0
28 0.0
29 -0.026431518766558
30 0.0
31 0.0
32 0.0
33 0.0
34 0.0
35 -0.004026793207895
36 0.0
37 -0.003493298802900
38 0.0
39 0.0
40 -0.001562250717801
41 0.0
42 0.0
43 0.006249002871203
44 0.0
45 0.0
46 0.0
47 -0.001866535179476
48 0.0
49 0.0
50 -0.000834739908741
51 0.0
52 0.0
53 0.003338959634963
54 0.0
55 0.0
56 0.0
57 0.0
58 0.0
59 0.0
60 0.0
61 0.0
62 0.65145593972649
63 0.0
64 0.0
65 0.005005123916028
66 0.0
67 0.0
68 -0.035320643421322
69 0.0
70 0.0
71 0.004023371484381
72 0.0
73 0.0
74 0.0
75 0.0
76 0.0
77 0.0
78 0.009514007528316
79 0.0
80 0.0
81 0.0
82 0.0
83 0.0
84 0.026431518766435
85 0.0
86 0.0
87 0.0
88 0.0
89 0.0
90 0.004026793207582
91 0.0
92 -0.003493298802900
93 0.0
94 0.0
95 -0.001562250717801
96 0.0
97 0.0
98 0.006249002871203
99 0.0
100 0.0
101 0.0
102 -0.001866535179348
103 0.0
104 0.0
105 -0.000834739908683
106 0.0
107 0.0
108 0.003338959634734
109 0.0
110 0.0
 Sym=      5.1
 Ene=     -10.6505
 Spin= Alpha
 Occup=    2.000000
1 0.49231768526824
2 0.65201999584386
3 0.001428474801000
4 0.081964474541617
5 0.031571960430821
6 0.0
7 0.0
8 0.27674232881271
9 0.0
10 0.0
11 -0.005475984425479
12 0.0
13 0.0
14 -0.048720094584235
15 0.0
16 0.0
17 -0.001262250319202
18 0.001968275376314
19 0.001968275376314
20 -0.003936550752628
21 0.0
22 0.0
23 0.0
24 0.003343373863859
25 0.003343373863859
26 -0.006686747727717
27 0.0
28 0.0
29 0.0
30 -0.000700543236567
31 -0.000700543236567
32 0.001401086473135
33 0.0
34 0.0
35 0.0
36 0.0
37 0.0
38 0.000741280349920
39 0.0
40 0.0
41 -0.000497265975842
42 0.0
43 0.0
44 -0.000497265975842
45 0.0
46 0.0
47 0.0
48 -0.000079501302684
49 0.0
50 0.0
51 0.000053331095131
52 0.0
53 0.0
54 0.000053331095131
55 0.0
56 -0.49517614443180
57 -0.13687044743653
58 -0.001574887521415
59 -0.056236453496345
60 -0.016402116569531
61 0.0
62 0.0
63 -0.038396455108509
64 0.0
65 0.0
66 -0.003821393413994
67 0.0
68 0.0
69 -0.044188875343620
70 0.0
71 0.0
72 -0.004000543685611
73 -0.000532868165027
74 -0.000532868165027
75 0.001065736330054
76 0.0
77 0.0
78 0.0
79 -0.000836751869164
80 -0.000836751869164
81 0.001673503738328
82 0.0
83 0.0
84 0.0
85 0.004919196131277
86 0.004919196131277
87 -0.009838392262554
88 0.0
89 0.0
90 0.0
91 0.0
92 0.0
93 -0.000367778213394
94 0.0
95 0.0
96 0.000246713125738
97 0.0
98 0.0
99 0.000246713125738
100 0.0
101 0.0
102 0.0
103 0.000527088979022
104 0.0
105 0.0
106 -0.000353582036185
107 0.0
108 0.0
109 -0.000353582036185
110 0.0
 Sym=      9.1
 Ene=      -0.2197
 Spin= Alpha
 Occup=    1.075227
1 0.0
2 0.0
3 0.0
4 0.0
5 0.0
6 0.0
7 0.77563333081200
8 0.0
9 0.0
10 0.000961474188469
11 0.0
12 0.0
13 0.050914141117730
14 0.0
15 0.0
16 0.036240922464322
17 0.0
18 0.0
19 0.0
20 0.0
21 0.0
22 0.0
23 0.001719430769658
24 0.0
25 0.0
26 0.0
27 0.0
28 0.0
29 0.008452308661398
30 0.0
31 0.0
32 0.0
33 0.0
34 0.0
35 -0.008628800417549
36 0.0
37 0.000500132986328
38 0.0
39 0.0
40 0.000223666271044
41 0.0
42 0.0
43 -0.000894665084176
44 0.0
45 0.0
46 0.0
47 0.001539979990272
48 0.0
49 0.0
50 0.000688699988448
51 0.0
52 0.0
53 -0.002754799953790
54 0.0
55 0.0
56 0.0
57 0.0
58 0.0
59 0.0
60 0.0
61 0.0
62 -0.77563333080605
63 0.0
64 0.0
65 -0.000961474186867
66 0.0
67 0.0
68 -0.050914141119847
69 0.0
70 0.0
71 -0.036240922452081
72 0.0
73 0.0
74 0.0
75 0.0
76 0.0
77 0.0
78 0.001719430769518
79 0.0
80 0.0
81 0.0
82 0.0
83 0.0
84 0.008452308662563
85 0.0
86 0.0
87 0.0
88 0.0
89 0.0
90 -0.008628800423842
91 0.0
92 -0.000500132986350
93 0.0
94 0.0
95 -0.000223666271054
96 0.0
97 0.0
98 0.000894665084214
99 0.0
100 0.0
101 0.0
102 -0.001539979990172
103 0.0
104 0.0
105 -0.000688699988403
106 0.0
107 0.0
108 0.002754799953612
109 0.0
110 0.0
 Sym=      6.1
 Ene=      -0.6921
 Spin= Alpha
 Occup=    1.924773
1 0.0
2 0.0
3 0.0
4 0.0
5 0.0
6 0.65145593972061
7 0.0
8 0.0
9 0.005005123916197
10 0.0
11 0.0
12 -0.035320643422343
13 0.0
14 0.0
15 0.004023371484024
16 0.0
17 0.0
18 0.0
19 0.0
20 0.0
21 0.0
22 -0.009514007528322
23 0.0
24 0.0
25 0.0
26 0.0
27 0.0
28 -0.026431518766487
29 0.0
30 0.0
31 0.0
32 0.0
33 0.0
34 -0.004026793208074
35 0.0
36 -0.003493298802893
37 0.0
38 0.0
39 -0.001562250717797
40 0.0
41 0.0
42 0.006249002871189
43 0.0
44 0.0
45 0.0
46 -0.001866535179454
47 0.0
48 0.0
49 -0.000834739908731
50 0.0
51 0.0
52 0.003338959634924
53 0.0
54 0.0
55 0.0
56 0.0
57 0.0
58 0.0
59 0.0
60 0.0
61 0.65145593972195
62 0.0
63 0.0
64 0.005005123916009
65 0.0
66 0.0
67 -0.035320643421270
68 0.0
69 0.0
70 0.004023371484673
71 0.0
72 0.0
73 0.0
74 0.0
75 0.0
76 0.0
77 0.009514007528327
78 0.0
79 0.0
80 0.0
81 0.0
82 0.0
83 0.026431518766510
84 0.0
85 0.0
86 0.0
87 0.0
88 0.0
89 0.004026793207409
90 0.0
91 -0.003493298802908
92 0.0
93 0.0
94 -0.001562250717804
95 0.0
96 0.0
97 0.006249002871216
98 0.0
99 0.0
100 0.0
101 -0.001866535179371
102 0.0
103 0.0
104 -0.000834739908694
105 0.0
106 0.0
107 0.003338959634775
108 0.0
109 0.0
110 0.0
 Sym=      8.1
 Ene=      -0.2197
 Spin= Alpha
 Occup=    1.075227
1 0.0
2 0.0
3 0.0
4 0.0
5 0.0
6 0.77563333081105
7 0.0
8 0.0
9 0.000961474188031
10 0.0
11 0.0
12 0.050914141118427
13 0.0
14 0.0
15 0.036240922457570
16 0.0
17 0.0
18 0.0
19 0.0
20 0.0
21 0.0
22 0.001719430769659
23 0.0
24 0.0
25 0.0
26 0.0
27 0.0
28 0.008452308661674
29 0.0
30 0.0
31 0.0
32 0.0
33 0.0
34 -0.008628800418244
35 0.0
36 0.000500132986350
37 0.0
38 0.0
39 0.000223666271054
40 0.0
41 0.0
42 -0.000894665084214
43 0.0
44 0.0
45 0.0
46 0.001539979990308
47 0.0
48 0.0
49 0.000688699988464
50 0.0
51 0.0
52 -0.002754799953854
53 0.0
54 0.0
55 0.0
56 0.0
57 0.0
58 0.0
59 0.0
60 0.0
61 -0.77563333080700
62 0.0
63 0.0
64 -0.000961474187333
65 0.0
66 0.0
67 -0.050914141118942
68 0.0
69 0.0
70 -0.036240922458815
71 0.0
72 0.0
73 0.0
74 0.0
75 0.0
76 0.0
77 0.001719430769519
78 0.0
79 0.0
80 0.0
81 0.0
82 0.0
83 0.008452308662292
84 0.0
85 0.0
86 0.0
87 0.0
88 0.0
89 -0.008628800423038
90 0.0
91 -0.000500132986328
92 0.0
93 0.0
94 -0.000223666271044
95 0.0
96 0.0
97 0.000894665084175
98 0.0
99 0.0
100 0.0
101 -0.001539979990143
102 0.0
103 0.0
104 -0.000688699988390
105 0.0
106 0.0
107 0.002754799953559
108 0.0
109 0.0
110 0.0
 Sym=     10.1
 Ene=       0.1007
 Spin= Alpha
 Occup=   -0.000000
1 0.015820499001351
2 -0.044771000928799
3 0.002464154668552
4 -1.42900319473377
5 -7.57876444637555
6 0.0
7 0.0
8 0.005419205515937
9 0.0
10 0.0
11 0.050882948996965
12 0.0
13 0.0
14 1.23608796629090
15 0.0
16 0.0
17 2.60121501315960
18 -0.001588445436374
19 -0.001588445436374
20 0.003176890872748
21 0.0
22 0.0
23 0.0
24 0.018682383926542
25 0.018682383926542
26 -0.037364767853085
27 0.0
28 0.0
29 0.0
30 0.16542874192898
31 0.16542874192898
32 -0.33085748385796
33 0.0
34 0.0
35 0.0
36 0.0
37 0.0
38 0.000660787922785
39 0.0
40 0.0
41 -0.000443270014218
42 0.0
43 0.0
44 -0.000443270014218
45 0.0
46 0.0
47 0.0
48 0.029300193118932
49 0.0
50 0.0
51 -0.019655167070341
52 0.0
53 0.0
54 -0.019655167070341
55 0.0
56 -0.015820499001278
57 0.044771000932292
58 -0.002464154668587
59 1.42900319473160
60 7.57876444637960
61 0.0
62 0.0
63 0.005419205514397
64 0.0
65 0.0
66 0.050882948996657
67 0.0
68 0.0
69 1.23608796629214
70 0.0
71 0.0
72 2.60121501315579
73 0.001588445436389
74 0.001588445436389
75 -0.003176890872778
76 0.0
77 0.0
78 0.0
79 -0.018682383926565
80 -0.018682383926565
81 0.037364767853130
82 0.0
83 0.0
84 0.0
85 -0.16542874192917
86 -0.16542874192917
87 0.33085748385834
88 0.0
89 0.0
90 0.0
91 0.0
92 0.0
93 0.000660787922770
94 0.0
95 0.0
96 -0.000443270014207
97 0.0
98 0.0
99 -0.000443270014207
100 0.0
101 0.0
102 0.0
103 0.029300193119114
104 0.0
105 0.0
106 -0.019655167070463
107 0.0
108 0.0
109 -0.019655167070463
110 0.0
 Sym=     11.1
 Ene=       0.1448
 Spin= Alpha
 Occup=   -0.000000
1 -0.001133361006008
2 -0.14613425220315
3 -0.012453328369701
4 -0.55410538756901
5 0.96912861048532
6 0.0
7 0.0
8 -0.13317282525903
9 0.0
10 0.0
11 0.077486097341195
12 0.0
13 0.0
14 -0.27512507585859
15 0.0
16 0.0
17 0.78487832323181
18 0.002259570592366
19 0.002259570592366
20 -0.004519141184732
21 0.0
22 0.0
23 0.0
24 -0.010132766837415
25 -0.010132766837415
26 0.020265533674830
27 0.0
28 0.0
29 0.0
30 -0.047001843685086
31 -0.047001843685086
32 0.094003687370171
33 0.0
34 0.0
35 0.0
36 0.0
37 0.0
38 0.003677693759725
39 0.0
40 0.0
41 -0.002467071974151
42 0.0
43 0.0
44 -0.002467071974151
45 0.0
46 0.0
47 0.0
48 -0.038238825945260
49 0.0
50 0.0
51 0.025651384258015
52 0.0
53 0.0
54 0.025651384258015
55 0.0
56 -0.001133361005977
57 -0.14613425220195
58 -0.012453328369763
59 -0.55410538757048
60 0.96912861045747
61 0.0
62 0.0
63 0.13317282525706
64 0.0
65 0.0
66 -0.077486097341042
67 0.0
68 0.0
69 0.27512507585661
70 0.0
71 0.0
72 -0.78487832324170
73 0.002259570592373
74 0.002259570592373
75 -0.004519141184745
76 0.0
77 0.0
78 0.0
79 -0.010132766837475
80 -0.010132766837475
81 0.020265533674951
82 0.0
83 0.0
84 0.0
85 -0.047001843684898
86 -0.047001843684898
87 0.094003687369796
88 0.0
89 0.0
90 0.0
91 0.0
92 0.0
93 -0.003677693759696
94 0.0
95 0.0
96 0.002467071974132
97 0.0
98 0.0
99 0.002467071974132
100 0.0
101 0.0
102 0.0
103 0.038238825945279
104 0.0
105 0.0
106 -0.025651384258028
107 0.0
108 0.0
109 -0.025651384258028
110 0.0
 Sym=     12.1
 Ene=       0.1541
 Spin= Alpha
 Occup=   -0.000000
1 0.0
2 0.0
3 0.0
4 0.0
5 0.0
6 0.0
7 -0.15945482861499
8 0.0
9 0.0
10 0.042168998957746
11 0.0
12 0.0
13 -0.19539602129462
14 0.0
15 0.0
16 0.63148085352527
17 0.0
18 0.0
19 0.0
20 0.0
21 0.0
22 0.0
23 0.002603924053304
24 0.0
25 0.0
26 0.0
27 0.0
28 0.0
29 0.011783523942227
30 0.0
31 0.0
32 0.0
33 0.0
34 0.0
35 -0.017184202508997
36 0.0
37 0.002205030611366
38 0.0
39 0.0
40 0.000986119667897
41 0.0
42 0.0
43 -0.003944478671586
44 0.0
45 0.0
46 0.0
47 -0.003234590608801
48 0.0
49 0.0
50 -0.001446552896132
51 0.0
52 0.0
53 0.005786211584530
54 0.0
55 0.0
56 0.0
57 0.0
58 0.0
59 0.0
60 0.0
61 0.0
62 -0.15945482860169
63 0.0
64 0.0
65 0.042168998958130
66 0.0
67 0.0
68 -0.19539602129195
69 0.0
70 0.0
71 0.63148085354610
72 0.0
73 0.0
74 0.0
75 0.0
76 0.0
77 0.0
78 -0.002603924053339
79 0.0
80 0.0
81 0.0
82 0.0
83 0.0
84 -0.011783523942634
85 0.0
86 0.0
87 0.0
88 0.0
89 0.0
90 0.017184202510315
91 0.0
92 0.002205030611394
93 0.0
94 0.0
95 0.000986119667909
96 0.0
97 0.0
98 -0.003944478671636
99 0.0
100 0.0
101 0.0
102 -0.003234590608837
103 0.0
104 0.0
105 -0.001446552896149
106 0.0
107 0.0
108 0.005786211584594
109 0.0
110 0.0
 Sym=     13.1
 Ene=       0.1541
 Spin= Alpha
 Occup=   -0.000000
1 0.0
2 0.0
3 0.0
4 0.0
5 0.0
6 -0.15945482860786
7 0.0
8 0.0
9 0.042168998958019
10 0.0
11 0.0
12 -0.19539602129313
13 0.0
14 0.0
15 0.63148085353909
16 0.0
17 0.0
18 0.0
19 0.0
20 0.0
21 0.0
22 0.002603924053324
23 0.0
24 0.0
25 0.0
26 0.0
27 0.0
28 0.011783523942437
29 0.0
30 0.0
31 0.0
32 0.0
33 0.0
34 -0.017184202509927
35 0.0
36 0.002205030611383
37 0.0
38 0.0
39 0.000986119667904
40 0.0
41 0.0
42 -0.003944478671617
43 0.0
44 0.0
45 0.0
46 -0.003234590608831
47 0.0
48 0.0
49 -0.001446552896146
50 0.0
51 0.0
52 0.005786211584582
53 0.0
54 0.0
55 0.0
56 0.0
57 0.0
58 0.0
59 0.0
60 0.0
61 -0.15945482860917
62 0.0
63 0.0
64 0.042168998958022
65 0.0
66 0.0
67 -0.19539602129324
68 0.0
69 0.0
70 0.63148085353224
71 0.0
72 0.0
73 0.0
74 0.0
75 0.0
76 0.0
77 -0.002603924053312
78 0.0
79 0.0
80 0.0
81 0.0
82 0.0
83 -0.011783523942349
84 0.0
85 0.0
86 0.0
87 0.0
88 0.0
89 0.017184202509403
90 0.0
91 0.002205030611382
92 0.0
93 0.0
94 0.000986119667903
95 0.0
96 0.0
97 -0.003944478671614
98 0.0
99 0.0
100 0.0
101 -0.003234590608824
102 0.0
103 0.0
104 -0.001446552896143
105 0.0
106 0.0
107 0.005786211584570
108 0.0
109 0.0
110 0.0
 Sym=     14.1
 Ene=       0.2031
 Spin= Alpha
 Occup=   -0.000000
1 0.0
2 0.0
3 0.0
4 0.0
5 0.0
6 0.0
7 -0.13257423687932
8 0.0
9 0.0
10 0.025642169968264
11 0.0
12 0.0
13 0.009060455775634
14 0.0
15 0.0
16 2.16023844167606
17 0.0
18 0.0
19 0.0
20 0.0
21 0.0
22 0.0
23 -0.002888680357829
24 0.0
25 0.0
26 0.0
27 0.0
28 0.0
29 0.024132005293845
30 0.0
31 0.0
32 0.0
33 0.0
34 0.0
35 -0.21073148168942
36 0.0
37 0.001931686903105
38 0.0
39 0.0
40 0.000863876645318
41 0.0
42 0.0
43 -0.003455506581272
44 0.0
45 0.0
46 0.0
47 -0.008001050603039
48 0.0
49 0.0
50 -0.003578178607962
51 0.0
52 0.0
53 0.014312714431848
54 0.0
55 0.0
56 0.0
57 0.0
58 0.0
59 0.0
60 0.0
61 0.0
62 0.13257423687803
63 0.0
64 0.0
65 -0.025642169967881
66 0.0
67 0.0
68 -0.009060455777978
69 0.0
70 0.0
71 -2.16023844166956
72 0.0
73 0.0
74 0.0
75 0.0
76 0.0
77 0.0
78 -0.002888680357867
79 0.0
80 0.0
81 0.0
82 0.0
83 0.0
84 0.024132005293710
85 0.0
86 0.0
87 0.0
88 0.0
89 0.0
90 -0.21073148168914
91 0.0
92 -0.001931686903088
93 0.0
94 0.0
95 -0.000863876645310
96 0.0
97 0.0
98 0.003455506581241
99 0.0
100 0.0
101 0.0
102 0.008001050603011
103 0.0
104 0.0
105 0.003578178607950
106 0.0
107 0.0
108 -0.014312714431799
109 0.0
110 0.0
 Sym=     15.1
 Ene=       0.2031
 Spin= Alpha
 Occup=   -0.000000
1 0.0
2 0.0
3 0.0
4 0.0
5 0.0
6 -0.13257423687828
7 0.0
8 0.0
9 0.025642169968014
10 0.0
11 0.0
12 0.009060455777253
13 0.0
14 0.0
15 2.16023844167166
16 0.0
17 0.0
18 0.0
19 0.0
20 0.0
21 0.0
22 -0.002888680357850
23 0.0
24 0.0
25 0.0
26 0.0
27 0.0
28 0.024132005293748
29 0.0
30 0.0
31 0.0
32 0.0
33 0.0
34 -0.21073148168928
35 0.0
36 0.001931686903092
37 0.0
38 0.0
39 0.000863876645312
40 0.0
41 0.0
42 -0.003455506581248
43 0.0
44 0.0
45 0.0
46 -0.008001050603015
47 0.0
48 0.0
49 -0.003578178607951
50 0.0
51 0.0
52 0.014312714431806
53 0.0
54 0.0
55 0.0
56 0.0
57 0.0
58 0.0
59 0.0
60 0.0
61 0.13257423687939
62 0.0
63 0.0
64 -0.025642169968229
65 0.0
66 0.0
67 -0.009060455776680
68 0.0
69 0.0
70 -2.16023844167368
71 0.0
72 0.0
73 0.0
74 0.0
75 0.0
76 0.0
77 -0.002888680357838
78 0.0
79 0.0
80 0.0
81 0.0
82 0.0
83 0.024132005293834
84 0.0
85 0.0
86 0.0
87 0.0
88 0.0
89 -0.21073148168916
90 0.0
91 -0.001931686903107
92 0.0
93 0.0
94 -0.000863876645319
95 0.0
96 0.0
97 0.003455506581275
98 0.0
99 0.0
100 0.0
101 0.008001050603030
102 0.0
103 0.0
104 0.003578178607958
105 0.0
106 0.0
107 -0.014312714431832
108 0.0
109 0.0
110 0.0
 Sym=     16.1
 Ene=       0.2036
 Spin= Alpha
 Occup=   -0.000000
1 0.015084996219729
2 0.15237451697060
3 0.007465979035308
4 0.78444948574551
5 -0.39038494568900
6 0.0
7 0.0
8 0.001756873424444
9 0.0
10 0.0
11 -0.065768227148964
12 0.0
13 0.0
14 0.21521304057559
15 0.0
16 0.0
17 1.51525460779207
18 -0.002044263578846
19 -0.002044263578846
20 0.004088527157692
21 0.0
22 0.0
23 0.0
24 -0.011549763933357
25 -0.011549763933357
26 0.023099527866714
27 0.0
28 0.0
29 0.0
30 0.17417273336607
31 0.17417273336607
32 -0.34834546673214
33 0.0
34 0.0
35 0.0
36 0.0
37 0.0
38 -0.007999017655993
39 0.0
40 0.0
41 0.005365904169606
42 0.0
43 0.0
44 0.005365904169606
45 0.0
46 0.0
47 0.0
48 0.056582629830732
49 0.0
50 0.0
51 -0.037956781994167
52 0.0
53 0.0
54 -0.037956781994167
55 0.0
56 0.015084996219747
57 0.15237451698097
58 0.007465979035331
59 0.78444948574412
60 -0.39038494568091
61 0.0
62 0.0
63 -0.001756873427501
64 0.0
65 0.0
66 0.065768227148771
67 0.0
68 0.0
69 -0.21521304057551
70 0.0
71 0.0
72 -1.51525460779036
73 -0.002044263578820
74 -0.002044263578820
75 0.004088527157639
76 0.0
77 0.0
78 0.0
79 -0.011549763933232
80 -0.011549763933232
81 0.023099527866463
82 0.0
83 0.0
84 0.0
85 0.17417273336619
86 0.17417273336619
87 -0.34834546673239
88 0.0
89 0.0
90 0.0
91 0.0
92 0.0
93 0.007999017655973
94 0.0
95 0.0
96 -0.005365904169593
97 0.0
98 0.0
99 -0.005365904169593
100 0.0
101 0.0
102 0.0
103 -0.056582629830864
104 0.0
105 0.0
106 0.037956781994256
107 0.0
108 0.0
109 0.037956781994256
110 0.0
 Sym=     17.1
 Ene=       0.3307
 Spin= Alpha
 Occup=   -0.000000
1 -0.054110887109675
2 -0.41483642327935
3 -0.020820042737836
4 3.33621452252269
5 15.4016890377450
6 0.0
7 0.0
8 0.12907373428179
9 0.0
10 0.0
11 -0.12485463427145
12 0.0
13 0.0
14 -3.29416079246766
15 0.0
16 0.0
17 -3.74242935951090
18 0.001343074462059
19 0.001343074462059
20 -0.002686148924118
21 0.0
22 0.0
23 0.0
24 -0.078181441296747
25 -0.078181441296747
26 0.15636288259349
27 0.0
28 0.0
29 0.0
30 -0.41812259878165
31 -0.41812259878165
32 0.83624519756330
33 0.0
34 0.0
35 0.0
36 0.0
37 0.0
38 -0.007778466021820
39 0.0
40 0.0
41 0.005217953635639
42 0.0
43 0.0
44 0.005217953635639
45 0.0
46 0.0
47 0.0
48 -0.077201014492567
49 0.0
50 0.0
51 0.051788014901198
52 0.0
53 0.0
54 0.051788014901198
55 0.0
56 0.054110887109742
57 0.41483642328116
58 0.020820042737851
59 -3.33621452252172
60 -15.4016890377450
61 0.0
62 0.0
63 0.12907373427862
64 0.0
65 0.0
66 -0.12485463427141
67 0.0
68 0.0
69 -3.29416079246746
70 0.0
71 0.0
72 -3.74242935951291
73 -0.001343074462024
74 -0.001343074462024
75 0.002686148924049
76 0.0
77 0.0
78 0.0
79 0.078181441296808
80 0.078181441296808
81 -0.15636288259362
82 0.0
83 0.0
84 0.0
85 0.41812259878199
86 0.41812259878199
87 -0.83624519756398
88 0.0
89 0.0
90 0.0
91 0.0
92 0.0
93 -0.007778466021837
94 0.0
95 0.0
96 0.005217953635650
97 0.0
98 0.0
99 0.005217953635650
100 0.0
101 0.0
102 0.0
103 -0.077201014492608
104 0.0
105 0.0
106 0.051788014901225
107 0.0
108 0.0
109 0.051788014901225
110 0.0
 Sym=     18.1
 Ene=       0.5204
 Spin= Alpha
 Occup=   -0.000000
1 0.000507534024763
2 0.27754340682550
3 -0.016701646736973
4 1.81575668266467
5 5.42676197625320
6 0.0
7 0.0
8 -0.62898890715501
9 0.0
10 0.0
11 -0.099467686590845
12 0.0
13 0.0
14 -1.91105260011692
15 0.0
16 0.0
17 -1.07966568071708
18 0.011619177354811
19 0.011619177354811
20 -0.023238354709622
21 0.0
22 0.0
23 0.0
24 -0.041353184525318
25 -0.041353184525318
26 0.082706369050635
27 0.0
28 0.0
29 0.0
30 -0.011877278159039
31 -0.011877278159039
32 0.023754556318078
33 0.0
34 0.0
35 0.0
36 0.0
37 0.0
38 -0.009004497893753
39 0.0
40 0.0
41 0.006040400818105
42 0.0
43 0.0
44 0.006040400818105
45 0.0
46 0.0
47 0.0
48 -0.018253040536900
49 0.0
50 0.0
51 0.012244511830970
52 0.0
53 0.0
54 0.012244511830970
55 0.0
56 -0.000507534024690
57 -0.27754340682290
58 0.016701646736952
59 -1.81575668266221
60 -5.42676197625493
61 0.0
62 0.0
63 -0.62898890715840
64 0.0
65 0.0
66 -0.099467686590155
67 0.0
68 0.0
69 -1.91105260012038
70 0.0
71 0.0
72 -1.07966568071382
73 -0.011619177354878
74 -0.011619177354878
75 0.023238354709757
76 0.0
77 0.0
78 0.0
79 0.041353184525353
80 0.041353184525353
81 -0.082706369050706
82 0.0
83 0.0
84 0.0
85 0.011877278158719
86 0.011877278158719
87 -0.023754556317438
88 0.0
89 0.0
90 0.0
91 0.0
92 0.0
93 -0.009004497893823
94 0.0
95 0.0
96 0.006040400818153
97 0.0
98 0.0
99 0.006040400818153