[Molden Format]
[Molpro variables]
_NUMVAR=  895.0000000000000    
_AVOGAD= 0.6022136736000000E+24
_BOLTZ= 0.1380658000000000E-22
_CLIGHT=  29979245800.00000    
_EV= 0.3674932379085202E-01
_ENULL= 0.8854187817000000E-11
_KJOULE= 0.3808798324128737E-03
_KJOULE/MOL= 0.3808798324128737E-03
_CM= 0.4556335267302901E-05
_CM-1= 0.4556335267302901E-05
_DEB2SI= 0.3335641000000000E-29
_AMU2AU=  1822.888390000000    
_KCAL= 0.1593601117815568E-02
_KCAL/MOL= 0.1593601117815568E-02
_KELVIN= 0.3166811411060229E-05
_JOULE= 0.4359748200000000E-17
_HERTZ= 0.1519829846004524E-15
_HZ= 0.1519829846004524E-15
_JPCAL=  4.184000000000000    
_PLANCK= 0.6626075540000000E-33
_TOA= 0.5291772109200000    
_TOANG= 0.5291772109200000    
_TORAD= 0.1745329251994330E-01
_TOCM=  219474.6306700000    
_TODEBYE=  2.541580000000000    
_TOE= 0.4803242000000000E-09
_TOEV=  27.21138505000000    
_TOHERTZ=  6579683920729000.    
_TOHZ=  6579683920729000.    
_TOK=  315775.0400000000    
_TOKCAL=  627.5096000000000    
_TOKELVIN=  315775.0400000000    
_TOKJ=  2625.500000000000    
_TOKJOULE=  2625.500000000000    
_TOKG= 0.1660565586000000E-26
_ANG=  1.889726124565062    
_ANGSTROM=  1.889726124565062    
_RPAREF=  0.000000000000000    
_RPADISS=  0.000000000000000    
_IGNORE_UNDEF=  2.000000000000000    
_STRICTCHECK=  0.000000000000000    
_SEW_ONEEL=  0.000000000000000    
_CPPDONE=FALSE
_DKROLL_DONE=  0.000000000000000    
_FOCKDONE=TRUE
_GRADONE=FALSE
_HESSDONE=FALSE
_INTDONE=TRUE
_SCFDONE=TRUE
_MODUL_BLOCK=FALSE
_MODUL_CUDA=FALSE
_MODUL_SLATER=FALSE
_MODUL_MRCC=FALSE
_MODUL_NBO6=FALSE
_MODUL_NECI=TRUE
_MODUL_AIMS=TRUE
_MRCC_EXEC=
_FITC_AO_SAVED=FALSE
_FITC_MO_SAVED=FALSE
_SHARED_FS=TRUE
_LSTYP=SEWARD
_INTYP=INTS
_GEOMTYP=ZMAT
_GRADTYP=ALASKA
_DIRECT=FALSE
_DKHO= -1.000000000000000    
_SYNCM=  0.000000000000000    
_BASIS=6-31G
_ZUNIT=ANG
_ZORIENT=  1.000000000000000    
_NELEC=  24.00000000000000    
!SPIN=  0.000000000000000    
_QSDSTEP=  0.000000000000000    
_QSDIRC=  0.000000000000000    
_PROGRAM=HF-SCF
_CPUSTEP= 0.6000000000000005E-01
_SYSSTEP=  0.000000000000000    
_WALLSTEP= 0.6000000000000000E-01
!DFSCF=  0.000000000000000    
!SCSGRD=  0.000000000000000    
_BASINP=  610.0000000000000    
_CARTESIAN=TRUE
_CPUTOT= 0.6400000000000000    
_CPUSORT= 0.3999999999999992E-01
_SYSSORT= 0.1000000000000001E-01
_WALLSORT= 0.5999999865889549E-01
_DFTEXFAC=  1.000000000000000    
_DMX=  0.000000000000000    
_DMY=  0.000000000000000    
_DMZ=-0.2502355628501030    
_DMX_SCF=  0.000000000000000    
_DMY_SCF=  0.000000000000000    
_DMZ_SCF=-0.2502355628501030    
_EHOMO=-0.4957003661645761    
_ELUMO=-0.6579253869812804E-01
_EIGS= -20.91725947495286    
_ENERGY= -224.1372468239061    
_ENERGY_METHOD=HF
_ENERGY_BASIS=6-31G
_GEOMETRY_METHOD=
_GEOMETRY_BASIS=
_ENUC=  68.84341652815182    
_GRADEXFAC=  9999.000000000000    
_GRADMETHOD=  1.000000000000000    
_NMRMETHOD=  0.000000000000000    
_NMRMAGNET=  0.000000000000000    
!GRID_FREEZE= -1.000000000000000    
_ITERATIONS=  11.00000000000000    
_LASTNELEC=  24.00000000000000    
_LASTSPIN=  0.000000000000000    
_LASTSYM=  1.000000000000000    
_MPP_PROG=  0.000000000000000    
_RS2PHASE=  0.000000000000000    
_NPROC_MPP=  1.000000000000000    
_NPROC_MPPX=  1.000000000000000    
_NPROC_SMP=  1.000000000000000    
_NUMSTEP=  0.000000000000000    
_ORBITAL=  2100.200000000000    
_PI=  3.141592653589793    
_SEIG_MIN= 0.2109682121746372E-01
_SEWPROP=TRUE
_STATUS=  1.000000000000000    
_SYSTOT= 0.5599999999999999    
_VERSION=  2015001.000000000    
_WALLTOT=  1.240000000000000    
_DATE=07-Oct-21
_LASTORB=RHF
_MACHINE= 64 bit serial version
_OUTPUT=/home/jeremy/newCalcsForXray/O3/O3.xml
_PGROUP=C2v
_TIME=11:07:24
_LIBMOL=/shared/apps/quantum/molpro2015.1/lib/
_VIGRDC=  0.000000000000000    
!VIBCNT=  0.000000000000000    
!RGHFCNT=  0.000000000000000    
!SURFREC=  0.000000000000000    
!ROTREC=  0.000000000000000    
!POLYREC=  0.000000000000000    
!DIPREC=  0.000000000000000    
!DIP4DREC=  0.000000000000000    
!DIPROT=  0.000000000000000    
!DIP4DROT=  0.000000000000000    
!PTREC=  0.000000000000000    
!PT4DREC=  0.000000000000000    
!VSCFREC=  0.000000000000000    
!VCIREC=  0.000000000000000    
!PVCIREC=  0.000000000000000    
!VMP2REC=  0.000000000000000    
!VMCSCFREC=  0.000000000000000    
!VMRCIREC=  0.000000000000000    
!VIBSTATEREC=  0.000000000000000    
!VIBSTATECNT=  0.000000000000000    
!VIBINFO=  0.000000000000000    
!GAREC=  0.000000000000000    
!SCFORB=  21002.00000000000    
!NEWMOL= -1.000000000000000    
!NEWSYM= -1.000000000000000    
_SLFILES=slscratch
_NGSSTO=  9.000000000000000    
_SIN=SIN
_COS=COS
_TAN=TAN
_ACOS=ACOS
_ASIN=ASIN
_ATAN=ATAN
_COSH=COSH
_SINH=SINH
_TANH=TANH
_ABS=ABS
_MOD=MOD
_ERF=ERF
_REFC=REFC
_ERFC=ERFC
_HYPOT=HYPOT
_J0=J0
_J1=J1
_JN=JN
_GAMMA=GAMMA
_LGAMMA=LGAMMA
_Y0=Y0
_Y1=Y1
_YN=YN
_EXP=EXP
_LOG=LOG
_LOG10=LOG10
_SQRT=SQRT
_INT=INT
_NINT=NINT
_MAX=MAX
_MIN=MIN
_COSMO=  0.000000000000000    
_COSMOIT=  0.000000000000000    
_COSMOES=  0.000000000000000    
_COSMOEDS=  0.000000000000000    
_COSMOEC=  0.000000000000000    
_COSMOEDCORR=  0.000000000000000    
_FEPSI=  1.000000000000000    
_SL_IsMM=  0.000000000000000    
_SL_NSYM=  4.000000000000000    
_SL_System_BitSw=  0.000000000000000    
_SL_Unique_atoms=  0.000000000000000    
_SL_GRAD=  0.000000000000000    
_SL_MAXUPD_Hess=  5.000000000000000    
_SL_N_PRINT_COD=  5.000000000000000    
_SL_PRINT_CODES=  0.000000000000000    
_SL_BasType=  0.000000000000000    
_SL_Energy_Pred=  0.000000000000000    
_SL_New_Coords=  0.000000000000000    
_SL_Total_Nuclea=  0.000000000000000    
_SL_Highest_Mltp=  0.000000000000000    
_SL_Ref_Geom=  0.000000000000000    
_SL_Symmetry_ope=  1.000000000000000    
_SL_agrad=  0.000000000000000    
_SL_GrdMax=  0.000000000000000    
_SL_GrdNorm=  0.000000000000000    
_SL_GrdRMS=  0.000000000000000    
_SL_Hss_Q=  0.000000000000000    
_SL_Hss_X=  0.000000000000000    
_SL_BMxOld=  0.000000000000000    
_SL_KtB=  0.000000000000000    
_SL_TROld=  0.000000000000000    
_SL_No_of_Intern=  0.000000000000000    
_SL_Hess=  0.000000000000000    
_SL_K=  0.000000000000000    
!LATTICE= -1.000000000000000    
!NEWLATTICE=  0.000000000000000    
!LATGRAD_VAR=FALSE
!SEW_LATTICE=  1.000000000000000    
!LOCAL=  0.000000000000000    
!SAVEDOM= -1.000000000000000    
!RESTDOM= -1.000000000000000    
!SAVEDOM_HF= -1.000000000000000    
!RESTDOM_HF= -1.000000000000000    
!HESSREC=  0.000000000000000    
!FREQREC=  0.000000000000000    
!NMODREC=  0.000000000000000    
!GTASKS=  0.000000000000000    
!HTASKS=  0.000000000000000    
!SAVEDOM_EOM= -1.000000000000000    
!RESTDOM_EOM= -1.000000000000000    
!GRADSTATE= -1.000000000000000    
!THRCHG= 0.1000000000000000    
!DEBUG= -1.000000000000000    
!CFIT_CPHF=  0.000000000000000    
!RDOMAUX_CPHF=  3.000000000000000    
!THRAO_CPHF= 0.1000000000000000E-09
!THRMO_CPHF= 0.1000000000000000E-08
!THROV_CPHF= 0.1000000000000000E-11
!THRSW_CPHF= 0.1000000000000000E-09
!THRPROD_CPHF= 0.1000000000000000E-08
!THRAOPR_CPHF= 0.1000000000000000E-11
!CFIT_SCFGRD=  0.000000000000000    
!RDOMAUX_SCFGRD=  5.000000000000000    
!THRAO_SCFGRD= 0.1000000000000000E-09
!THRMO_SCFGRD= 0.1000000000000000E-08
!THROV_SCFGRD= 0.1000000000000000E-11
!THRSW_SCFGRD= 0.1000000000000000E-09
!THRPROD_SCFGRD= 0.1000000000000000E-08
!THRAOPR_SCFGRD= 0.1000000000000000E-11
!LOCFIT_SCF=  0.000000000000000    
!LOCFIT_MP2= -1.000000000000000    
_RIDOM=  0.000000000000000    
!CC2_METHOD=  0.000000000000000    
_BASIS2006=FALSE
_SVDDEL= -1.000000000000000    
_SVDDELA= -1.000000000000000    
_SVDDELP= -1.000000000000000    
_SVDDELF= -1.000000000000000    
_SVDDELS= -1.000000000000000    
_SVDDEL_ABS= -1.000000000000000    
_SVDDELA_ABS= -1.000000000000000    
_SVDDELP_ABS= -1.000000000000000    
_SVDDELF_ABS= -1.000000000000000    
_SVDDELS_ABS= -1.000000000000000    
_MAXBASIS=  0.000000000000000    
!OPT_CONICAL=  0.000000000000000    
!CLEARSP_JGRID=  0.000000000000000    
_GRDHYBR=  0.000000000000000    
_STATEGRAD=  1.000000000000000    
_4EXT_NDISKS=  1.000000000000000    
!ZMP=  0.000000000000000    
_MAXIT_ZMP=  500.0000000000000    
_MAXDIS_ZMP=  100.0000000000000    
_ACCU_ZMP=  14.00000000000000    
_SHIFTA_ZMP= -100.0000000000000    
!EMBEDFLAG=  1.000000000000000    
!EMBED=FALSE
!EMBED_F12=FALSE
!EMBEDNUC=  0.000000000000000    
_EMBEDENERGY=  0.000000000000000    
_KSPACETIME=  0.000000000000000    
_RSPACETIME=  0.000000000000000    
!EMBED_DFC=FALSE
!NUM_VOIDS=  0.000000000000000    
_IBODY=  0.000000000000000    
_EMBE_TOTAL=  0.000000000000000    
_EMBE_HF=  0.000000000000000    
_EMBE_CORR=  0.000000000000000    
!EMBED_PROJ=FALSE
!EMBED_TRUNC=  0.000000000000000    
!EMB_PROJ_ZMU=  1000000.000000000    
!CORRECTION=  0.000000000000000    
!CORRECTION_HF=  0.000000000000000    
!EMBED_ENERGY=  0.000000000000000    
!EMBED_NAXC=FALSE
!EMBED_AORB=  0.000000000000000    
!EMBED_NACORR=  0.000000000000000    
!EMBED_MP2=FALSE
!EMBED_TRUNC_PERTURBATION=FALSE
!EMBED_FROZEN=  0.000000000000000    
_CHANGE_BASIS=FALSE
_RESTORE_BASIS=FALSE
_FIX_EMBED_GUESS=FALSE
!EDFT=  0.000000000000000    
_IFASTLATGRAD=  0.000000000000000    
_SINDEX=  0.000000000000000    
_AVDOM_OSV=  0.000000000000000    
_AVDOM_PNO=  0.000000000000000    
_AVDOM_PAO=  0.000000000000000    
_AVDOM_LMO=  0.000000000000000    
_CC2OSV_FLAG=  0.000000000000000    
_TMADC2_FLAG=FALSE
_PROPADC2_FLAG=FALSE
_LEN_VirQ=  0.000000000000000    
_GRDCC2LR_FLAG=FALSE
_GRDADC2_FLAG=FALSE
R=  1.272760000000000    
THETA=  116.7542000000000    
GX1=  0.000000000000000    
GY1=-0.1665334536937735E-15
GZ1=-0.8407284689761070    
GX2=  0.000000000000000    
GY2=  2.048042344948866    
GZ2= 0.4203642344880535    
GX3=  0.000000000000000    
GY3= -2.048042344948866    
GZ3= 0.4203642344880537    
[Atoms] Angs
O     1    8         0.0000000000        0.0000000000       -0.4448943464
O     2    8         0.0000000000        1.0837773359        0.2224471732
O     3    8         0.0000000000       -1.0837773359        0.2224471732
[GTO]
   1 0
 s    6  1.00
  0.5484671700D+04  0.1831074396D-02
  0.8252349500D+03  0.1395017197D-01
  0.1880469600D+03  0.6844507786D-01
  0.5296450000D+02  0.2327143395D+00
  0.1689757000D+02  0.4701928990D+00
  0.5799635300D+01  0.3585208493D+00
 s    3  1.00
  0.1553961600D+02 -0.1107775519D+00
  0.3599933600D+01 -0.1480262626D+00
  0.1013761800D+01  0.1130767020D+01
 s    1  1.00
  0.2700058200D+00  0.1000000000D+01
 p    3  1.00
  0.1553961600D+02  0.7087426737D-01
  0.3599933600D+01  0.3397528370D+00
  0.1013761800D+01  0.7271585736D+00
 p    1  1.00
  0.2700058200D+00  0.1000000000D+01
  
   2 0
 s    6  1.00
  0.5484671700D+04  0.1831074396D-02
  0.8252349500D+03  0.1395017197D-01
  0.1880469600D+03  0.6844507786D-01
  0.5296450000D+02  0.2327143395D+00
  0.1689757000D+02  0.4701928990D+00
  0.5799635300D+01  0.3585208493D+00
 s    3  1.00
  0.1553961600D+02 -0.1107775519D+00
  0.3599933600D+01 -0.1480262626D+00
  0.1013761800D+01  0.1130767020D+01
 s    1  1.00
  0.2700058200D+00  0.1000000000D+01
 p    3  1.00
  0.1553961600D+02  0.7087426737D-01
  0.3599933600D+01  0.3397528370D+00
  0.1013761800D+01  0.7271585736D+00
 p    1  1.00
  0.2700058200D+00  0.1000000000D+01
  
   3 0
 s    6  1.00
  0.5484671700D+04  0.1831074396D-02
  0.8252349500D+03  0.1395017197D-01
  0.1880469600D+03  0.6844507786D-01
  0.5296450000D+02  0.2327143395D+00
  0.1689757000D+02  0.4701928990D+00
  0.5799635300D+01  0.3585208493D+00
 s    3  1.00
  0.1553961600D+02 -0.1107775519D+00
  0.3599933600D+01 -0.1480262626D+00
  0.1013761800D+01  0.1130767020D+01
 s    1  1.00
  0.2700058200D+00  0.1000000000D+01
 p    3  1.00
  0.1553961600D+02  0.7087426737D-01
  0.3599933600D+01  0.3397528370D+00
  0.1013761800D+01  0.7271585736D+00
 p    1  1.00
  0.2700058200D+00  0.1000000000D+01
 
 
[MO]
 Sym=      1.1
 Ene=     -20.9173
 Spin= Alpha
 Occup=    2.000000
1 0.99592197619455
2 0.022143643586295
3 -0.011187145963109
4 0.0
5 0.0
6 0.002233478096950
7 0.0
8 0.0
9 -0.003760819447054
10 0.001707460013550
11 -0.000409286328580
12 0.003676270058435
13 0.0
14 -0.000036056286689
15 -0.000015649103691
16 0.0
17 -0.001985121221266
18 -0.000615206875688
19 0.001707460013550
20 -0.000409286328580
21 0.003676270058435
22 0.0
23 0.000036056286689
24 -0.000015649103691
25 0.0
26 0.001985121221266
27 -0.000615206875688
 Sym=      1.3
 Ene=     -20.7326
 Spin= Alpha
 Occup=    2.000000
1 0.0
2 0.0
3 0.0
4 0.0
5 -0.000174999099394
6 0.0
7 0.0
8 0.002738906060770
9 0.0
10 0.70421694792958
11 0.015162106025981
12 -0.005925428132542
13 0.0
14 -0.001451889168824
15 -0.000710262988824
16 0.0
17 0.002192793385115
18 0.001189845672183
19 -0.70421694792958
20 -0.015162106025981
21 0.005925428132542
22 0.0
23 -0.001451889168824
24 0.000710262988824
25 0.0
26 0.002192793385115
27 -0.001189845672183
 Sym=      2.1
 Ene=     -20.7325
 Spin= Alpha
 Occup=    2.000000
1 -0.002419724190283
2 -0.000365127908053
3 0.003191570974423
4 0.0
5 0.0
6 -0.000008674491527
7 0.0
8 0.0
9 0.000587271048273
10 0.70419888207680
11 0.014526501788718
12 -0.004264361561506
13 0.0
14 -0.001185543708855
15 -0.000763441753983
16 0.0
17 0.001135758647926
18 0.000896446530775
19 0.70419888207680
20 0.014526501788718
21 -0.004264361561506
22 0.0
23 0.001185543708855
24 -0.000763441753983
25 0.0
26 -0.001135758647926
27 0.000896446530775
 Sym=      3.1
 Ene=      -1.7922
 Spin= Alpha
 Occup=    2.000000
1 -0.17849855016178
2 0.41741595189271
3 0.35544070123009
4 0.0
5 0.0
6 0.12861938311031
7 0.0
8 0.0
9 0.076046421248069
10 -0.090769188514868
11 0.21710926682886
12 0.091898236487491
13 0.0
14 -0.099261095752468
15 -0.049794666418161
16 0.0
17 0.002330446012344
18 -0.006704037286228
19 -0.090769188514868
20 0.21710926682886
21 0.091898236487491
22 0.0
23 0.099261095752468
24 -0.049794666418161
25 0.0
26 -0.002330446012344
27 -0.006704037286228
 Sym=      2.3
 Ene=      -1.4580
 Spin= Alpha
 Occup=    2.000000
1 0.0
2 0.0
3 0.0
4 0.0
5 0.29542594607517
6 0.0
7 0.0
8 0.049082698183840
9 0.0
10 -0.14693880534648
11 0.34077562056764
12 0.31994984096541
13 0.0
14 -0.072275698550034
15 -0.062141691528318
16 0.0
17 -0.049336248019282
18 -0.027773607811916
19 0.14693880534648
20 -0.34077562056764
21 -0.31994984096541
22 0.0
23 -0.072275698550034
24 0.062141691528318
25 0.0
26 -0.049336248019282
27 0.027773607811916
 Sym=      4.1
 Ene=      -1.0976
 Spin= Alpha
 Occup=    2.000000
1 0.14239669550222
2 -0.35631375715512
3 -0.47817490577654
4 0.0
5 0.0
6 0.17928635053081
7 0.0
8 0.0
9 0.042600562250210
10 -0.12720447124663
11 0.30116188920959
12 0.38513104821855
13 0.0
14 0.055530491640619
15 0.082806465222495
16 0.0
17 -0.012619030207639
18 0.018340296874459
19 -0.12720447124663
20 0.30116188920959
21 0.38513104821855
22 0.0
23 -0.055530491640619
24 0.082806465222495
25 0.0
26 0.012619030207639
27 0.018340296874459
 Sym=      5.1
 Ene=      -0.8406
 Spin= Alpha
 Occup=    2.000000
1 0.011003177787108
2 -0.040313193091357
3 0.058471910935414
4 0.0
5 0.0
6 0.50028062259976
7 0.0
8 0.0
9 0.32191534341378
10 0.052313318660409
11 -0.11326711863947
12 -0.25316390368405
13 0.0
14 -0.26018543487556
15 0.11135419944674
16 0.0
17 -0.088136610908367
18 0.083200295491235
19 0.052313318660409
20 -0.11326711863947
21 -0.25316390368405
22 0.0
23 0.26018543487556
24 0.11135419944674
25 0.0
26 0.088136610908367
27 0.083200295491235
 Sym=      1.2
 Ene=      -0.7954
 Spin= Alpha
 Occup=    2.000000
1 0.0
2 0.0
3 0.0
4 0.50257153007595
5 0.0
6 0.0
7 0.32551819161198
8 0.0
9 0.0
10 0.0
11 0.0
12 0.0
13 0.26510820606347
14 0.0
15 0.0
16 0.15335383285394
17 0.0
18 0.0
19 0.0
20 0.0
21 0.0
22 0.26510820606347
23 0.0
24 0.0
25 0.15335383285394
26 0.0
27 0.0
 Sym=      3.3
 Ene=      -0.7951
 Spin= Alpha
 Occup=    2.000000
1 0.0
2 0.0
3 0.0
4 0.0
5 -0.44592047169990
6 0.0
7 0.0
8 -0.25455050678499
9 0.0
10 -0.075546617215691
11 0.17502305592322
12 0.31618448085125
13 0.0
14 0.18142780296199
15 0.26297032625419
16 0.0
17 0.068380797025579
18 0.11117077251651
19 0.075546617215691
20 -0.17502305592322
21 -0.31618448085125
22 0.0
23 0.18142780296199
24 -0.26297032625419
25 0.0
26 0.068380797025579
27 -0.11117077251651
 Sym=      4.3
 Ene=      -0.5787
 Spin= Alpha
 Occup=    2.000000
1 0.0
2 0.0
3 0.0
4 0.0
5 -0.12429526808953
6 0.0
7 0.0
8 -0.003543231598099
9 0.0
10 -0.007155269155963
11 0.018951313920135
12 0.008118014046618
13 0.0
14 0.36456740239315
15 -0.34345362644030
16 0.0
17 0.25622139101149
18 -0.22279662129690
19 0.007155269155963
20 -0.018951313920135
21 -0.008118014046618
22 0.0
23 0.36456740239315
24 0.34345362644030
25 0.0
26 0.25622139101149
27 0.22279662129690
 Sym=      6.1
 Ene=      -0.5615
 Spin= Alpha
 Occup=    2.000000
1 -0.032368532244888
2 0.071329868161995
3 0.16580750881548
4 0.0
5 0.0
6 -0.35743889959804
7 0.0
8 0.0
9 -0.22618067639710
10 -0.004226280501422
11 -0.002398678262432
12 0.057020123829284
13 0.0
14 -0.080204753582225
15 0.43783518267494
16 0.0
17 -0.086367757173925
18 0.30268085996440
19 -0.004226280501422
20 -0.002398678262432
21 0.057020123829284
22 0.0
23 0.080204753582225
24 0.43783518267494
25 0.0
26 0.086367757173925
27 0.30268085996440
 Sym=      1.4
 Ene=      -0.4957
 Spin= Alpha
 Occup=    2.000000
1 0.0
2 0.0
3 0.0
4 0.0
5 0.0
6 0.0
7 0.0
8 0.0
9 0.0
10 0.0
11 0.0
12 0.0
13 0.46417309246291
14 0.0
15 0.0
16 0.36472046805390
17 0.0
18 0.0
19 0.0
20 0.0
21 0.0
22 -0.46417309246291
23 0.0
24 0.0
25 -0.36472046805390
26 0.0
27 0.0
 Sym=      2.2
 Ene=      -0.0658
 Spin= Alpha
 Occup=    0.000000
1 0.0
2 0.0
3 0.0
4 -0.48279744581841
5 0.0
6 0.0
7 -0.43607120308029
8 0.0
9 0.0
10 0.0
11 0.0
12 0.0
13 0.38177383360289
14 0.0
15 0.0
16 0.36713653417695
17 0.0
18 0.0
19 0.0
20 0.0
21 0.0
22 0.38177383360289
23 0.0
24 0.0
25 0.36713653417695
26 0.0
27 0.0
 Sym=      7.1
 Ene=       0.2681
 Spin= Alpha
 Occup=    0.000000
1 -0.11597950432347
2 0.28206732771211
3 1.33816802348082
4 0.0
5 0.0
6 0.36792753703821
7 0.0
8 0.0
9 0.70249807121478
10 0.052253766646248
11 -0.11210486728363
12 -0.59897244425888
13 0.0
14 0.37281598623331
15 0.15223736398174
16 0.0
17 0.67961523880425
18 0.28029558466200
19 0.052253766646248
20 -0.11210486728363
21 -0.59897244425888
22 0.0
23 -0.37281598623331
24 0.15223736398174
25 0.0
26 -0.67961523880425
27 0.28029558466200
 Sym=      5.3
 Ene=       0.3711
 Spin= Alpha
 Occup=    0.000000
1 0.0
2 0.0
3 0.0
4 0.0
5 0.57039165783713
6 0.0
7 0.0
8 1.19911063797461
9 0.0
10 0.061356356229079
11 -0.15340943886933
12 -0.73660196757010
13 0.0
14 0.25260734090083
15 0.24968743486418
16 0.0
17 0.59847096873249
18 0.50795109110560
19 -0.061356356229079
20 0.15340943886933
21 0.73660196757010
22 0.0
23 0.25260734090083
24 -0.24968743486418
25 0.0
26 0.59847096873249
27 -0.50795109110560
 Sym=      8.1
 Ene=       0.9924
 Spin= Alpha
 Occup=    0.000000
1 -0.046185629617997
2 0.31635344349896
3 1.02993654060874
4 0.0
5 0.0
6 -0.58446994568626
7 0.0
8 0.0
9 1.35713068024637
10 -0.019309968804009
11 0.39508544894305
12 -0.99100226527362
13 0.0
14 -0.38749882243443
15 0.061430308202231
16 0.0
17 0.88961379837655
18 -0.004971842067934
19 -0.019309968804009
20 0.39508544894305
21 -0.99100226527362
22 0.0
23 0.38749882243443
24 0.061430308202231
25 0.0
26 -0.88961379837655
27 -0.004971842067934
 Sym=      3.2
 Ene=       1.0260
 Spin= Alpha
 Occup=    0.000000
1 0.0
2 0.0
3 0.0
4 -0.70240787278913
5 0.0
6 0.0
7 0.67908774381750
8 0.0
9 0.0
10 0.0
11 0.0
12 0.0
13 -0.47785194346868
14 0.0
15 0.0
16 0.34141524497258
17 0.0
18 0.0
19 0.0
20 0.0
21 0.0
22 -0.47785194346868
23 0.0
24 0.0
25 0.34141524497258
26 0.0
27 0.0
 Sym=      9.1
 Ene=       1.0299
 Spin= Alpha
 Occup=    0.000000
1 -0.015859869463161
2 0.14334599731104
3 -0.029430621627426
4 0.0
5 0.0
6 -0.50248980883587
7 0.0
8 0.0
9 0.47546529040694
10 0.011526715194092
11 -0.15136689772231
12 0.019515327944350
13 0.0
14 0.25306583187364
15 -0.50201374036455
16 0.0
17 -0.19291583232116
18 0.46837171263858
19 0.011526715194092
20 -0.15136689772231
21 0.019515327944350
22 0.0
23 -0.25306583187364
24 -0.50201374036455
25 0.0
26 0.19291583232116
27 0.46837171263858
 Sym=      6.3
 Ene=       1.0776
 Spin= Alpha
 Occup=    0.000000
1 0.0
2 0.0
3 0.0
4 0.0
5 -0.62521973674805
6 0.0
7 0.0
8 1.46931694058927
9 0.0
10 0.037150060779590
11 -0.34130642464184
12 -0.42589737808848
13 0.0
14 -0.46214886614630
15 0.031817224304574
16 0.0
17 0.79252114660840
18 0.27180858731593
19 -0.037150060779590
20 0.34130642464184
21 0.42589737808848
22 0.0
23 -0.46214886614630
24 -0.031817224304574
25 0.0
26 0.79252114660840
27 -0.27180858731593
 Sym=     10.1
 Ene=       1.1312
 Spin= Alpha
 Occup=    0.000000
1 0.033455718031910
2 -0.53312146387617
3 1.39011143082280
4 0.0
5 0.0
6 0.094798785802611
7 0.0
8 0.0
9 0.11873364991063
10 0.050045007828300
11 -0.50817799281007
12 0.12887698404512
13 0.0
14 -0.44705289252639
15 -0.25136117237071
16 0.0
17 0.72879899037827
18 0.44809747529170
19 0.050045007828300
20 -0.50817799281007
21 0.12887698404512
22 0.0
23 0.44705289252639
24 -0.25136117237071
25 0.0
26 -0.72879899037827
27 0.44809747529170
 Sym=      7.3
 Ene=       1.1524
 Spin= Alpha
 Occup=    0.000000
1 0.0
2 0.0
3 0.0
4 0.0
5 0.16583204023378
6 0.0
7 0.0
8 0.18278886998120
9 0.0
10 0.017404419530848
11 -0.086360823575482
12 -0.085468561061749
13 0.0
14 -0.13487795340297
15 -0.63622635734717
16 0.0
17 0.28651678279482
18 0.86517954767513
19 -0.017404419530848
20 0.086360823575482
21 0.085468561061749
22 0.0
23 -0.13487795340297
24 0.63622635734717
25 0.0
26 0.28651678279482
27 -0.86517954767513
 Sym=      2.4
 Ene=       1.1659
 Spin= Alpha
 Occup=    0.000000
1 0.0
2 0.0
3 0.0
4 0.0
5 0.0
6 0.0
7 0.0
8 0.0
9 0.0
10 0.0
11 0.0
12 0.0
13 -0.68262017269269
14 0.0
15 0.0
16 0.79200263883889
17 0.0
18 0.0
19 0.0
20 0.0
21 0.0
22 0.68262017269269
23 0.0
24 0.0
25 -0.79200263883889
26 0.0
27 0.0
 Sym=      4.2
 Ene=       1.1987
 Spin= Alpha
 Occup=    0.000000
1 0.0
2 0.0
3 0.0
4 -0.63125580560945
5 0.0
6 0.0
7 1.19284512020317
8 0.0
9 0.0
10 0.0
11 0.0
12 0.0
13 0.47758364991980
14 0.0
15 0.0
16 -0.83229460158794
17 0.0
18 0.0
19 0.0
20 0.0
21 0.0
22 0.47758364991980
23 0.0
24 0.0
25 -0.83229460158794
26 0.0
27 0.0
 Sym=     11.1
 Ene=       1.3122
 Spin= Alpha
 Occup=    0.000000
1 0.013593063650360
2 -0.34763827861206
3 -0.38947599559794
4 0.0
5 0.0
6 -0.45887161922409
7 0.0
8 0.0
9 0.68282835755663
10 0.037313266845230
11 -0.72397991321338
12 0.70190435593825
13 0.0
14 0.13964482158002
15 0.35338433661091
16 0.0
17 -0.18944492322447
18 -0.66030490349095
19 0.037313266845230
20 -0.72397991321338
21 0.70190435593825
22 0.0
23 -0.13964482158002
24 0.35338433661091
25 0.0
26 0.18944492322447
27 -0.66030490349095
 Sym=      8.3
 Ene=       1.3316
 Spin= Alpha
 Occup=    0.000000
1 0.0
2 0.0
3 0.0
4 0.0
5 -0.64364970082596
6 0.0
7 0.0
8 2.10623371708553
9 0.0
10 -0.007865579926033
11 0.20438313393581
12 -1.18189126795514
13 0.0
14 0.40363037681750
15 -0.16132288880835
16 0.0
17 -0.19138561110262
18 0.77420545525949
19 0.007865579926033
20 -0.20438313393581
21 1.18189126795514
22 0.0
23 0.40363037681750
24 0.16132288880835
25 0.0
26 -0.19138561110262
27 -0.77420545525949
 Sym=      9.3
 Ene=       1.6930
 Spin= Alpha
 Occup=    0.000000
1 0.0
2 0.0
3 0.0
4 0.0
5 -0.004351840568578
6 0.0
7 0.0
8 -1.58540122793452
9 0.0
10 0.033585701579966
11 -1.15443695290697
12 2.24610193930277
13 0.0
14 0.30020641682582
15 0.018171645442557
16 0.0
17 -1.12381084482940
18 -0.55821153249379
19 -0.033585701579966
20 1.15443695290697
21 -2.24610193930277
22 0.0
23 0.30020641682582
24 -0.018171645442557
25 0.0
26 -1.12381084482940
27 0.55821153249379
 Sym=     12.1
 Ene=       1.7567
 Spin= Alpha
 Occup=    0.000000
1 0.010551606126137
2 -1.71389209450836
3 4.42144240194389
4 0.0
5 0.0
6 -0.18409712726914
7 0.0
8 0.0
9 1.55535695436663
10 0.002869728694711
11 0.56403736885374
12 -2.11834911566703
13 0.0
14 0.14387822151636
15 0.008250395887763
16 0.0
17 0.97646209648141
18 0.43284892675944
19 0.002869728694711
20 0.56403736885374
21 -2.11834911566703
22 0.0
23 -0.14387822151636
24 0.008250395887763
25 0.0
26 -0.97646209648141
27 0.43284892675944
