[Molden Format]
[Atoms] Angs
S     1   16         0.0000000000        0.0000000000        0.0000000000
F     2    9         0.0000000000        0.0000000000        1.5640000000
F     3    9         0.0000000000        1.5640000000        0.0000000000
F     4    9         1.5640000000        0.0000000000        0.0000000000
F     5    9         0.0000000000       -1.5640000000        0.0000000000
F     6    9        -1.5640000000        0.0000000000        0.0000000000
F     7    9         0.0000000000        0.0000000000       -1.5640000000
[GTO]
   1 0
 s    6  1.00
  0.9341340000D+05  0.7429999567D-03
  0.1396170000D+05  0.5792999662D-02
  0.3169910000D+04  0.2995399825D-01
  0.9024560000D+03  0.1190279931D+00
  0.2971580000D+03  0.3684319785D+00
  0.1087020000D+03  0.5772989663D+00
 s    3  1.00
  0.1087020000D+03  0.1431860600D+00
  0.4315530000D+02  0.6244652619D+00
  0.1810790000D+02  0.2833661188D+00
 s    1  1.00
  0.5560090000D+01  0.1000000000D+01
 s    1  1.00
  0.2131830000D+01  0.1000000000D+01
 s    1  1.00
  0.4204030000D+00  0.1000000000D+01
 s    1  1.00
  0.1360450000D+00  0.1000000000D+01
 p    4  1.00
  0.4950400000D+03  0.8309002513D-02
  0.1172210000D+03  0.6402401937D-01
  0.3777490000D+02  0.2776140840D+00
  0.1405840000D+02  0.7450762254D+00
 p    2  1.00
  0.5565740000D+01  0.6137116720D+00
  0.2262970000D+01  0.4438177628D+00
 p    1  1.00
  0.8079940000D+00  0.1000000000D+01
 p    1  1.00
  0.2774600000D+00  0.1000000000D+01
 p    1  1.00
  0.7714100000D-01  0.1000000000D+01
  
   2 0
 s    6  1.00
  0.1142710000D+05  0.1800930156D-02
  0.1722350000D+04  0.1374190119D-01
  0.3957460000D+03  0.6813340591D-01
  0.1151390000D+03  0.2333250202D+00
  0.3360260000D+02  0.5890860511D+00
  0.4919010000D+01  0.2995050260D+00
 s    3  1.00
  0.5544410000D+02  0.1145360155D+00
  0.1263230000D+02  0.9205121249D+00
  0.3717560000D+01 -0.3378040458D-02
 s    1  1.00
  0.1165450000D+01  0.1000000000D+01
 s    1  1.00
  0.3218920000D+00  0.1000000000D+01
 p    3  1.00
  0.5544410000D+02  0.3546088738D-01
  0.1263230000D+02  0.2374509155D+00
  0.3717560000D+01  0.8204577080D+00
 p    1  1.00
  0.1165450000D+01  0.1000000000D+01
 p    1  1.00
  0.3218920000D+00  0.1000000000D+01
  
   3 0
 s    6  1.00
  0.1142710000D+05  0.1800930156D-02
  0.1722350000D+04  0.1374190119D-01
  0.3957460000D+03  0.6813340591D-01
  0.1151390000D+03  0.2333250202D+00
  0.3360260000D+02  0.5890860511D+00
  0.4919010000D+01  0.2995050260D+00
 s    3  1.00
  0.5544410000D+02  0.1145360155D+00
  0.1263230000D+02  0.9205121249D+00
  0.3717560000D+01 -0.3378040458D-02
 s    1  1.00
  0.1165450000D+01  0.1000000000D+01
 s    1  1.00
  0.3218920000D+00  0.1000000000D+01
 p    3  1.00
  0.5544410000D+02  0.3546088738D-01
  0.1263230000D+02  0.2374509155D+00
  0.3717560000D+01  0.8204577080D+00
 p    1  1.00
  0.1165450000D+01  0.1000000000D+01
 p    1  1.00
  0.3218920000D+00  0.1000000000D+01
  
   4 0
 s    6  1.00
  0.1142710000D+05  0.1800930156D-02
  0.1722350000D+04  0.1374190119D-01
  0.3957460000D+03  0.6813340591D-01
  0.1151390000D+03  0.2333250202D+00
  0.3360260000D+02  0.5890860511D+00
  0.4919010000D+01  0.2995050260D+00
 s    3  1.00
  0.5544410000D+02  0.1145360155D+00
  0.1263230000D+02  0.9205121249D+00
  0.3717560000D+01 -0.3378040458D-02
 s    1  1.00
  0.1165450000D+01  0.1000000000D+01
 s    1  1.00
  0.3218920000D+00  0.1000000000D+01
 p    3  1.00
  0.5544410000D+02  0.3546088738D-01
  0.1263230000D+02  0.2374509155D+00
  0.3717560000D+01  0.8204577080D+00
 p    1  1.00
  0.1165450000D+01  0.1000000000D+01
 p    1  1.00
  0.3218920000D+00  0.1000000000D+01
  
   5 0
 s    6  1.00
  0.1142710000D+05  0.1800930156D-02
  0.1722350000D+04  0.1374190119D-01
  0.3957460000D+03  0.6813340591D-01
  0.1151390000D+03  0.2333250202D+00
  0.3360260000D+02  0.5890860511D+00
  0.4919010000D+01  0.2995050260D+00
 s    3  1.00
  0.5544410000D+02  0.1145360155D+00
  0.1263230000D+02  0.9205121249D+00
  0.3717560000D+01 -0.3378040458D-02
 s    1  1.00
  0.1165450000D+01  0.1000000000D+01
 s    1  1.00
  0.3218920000D+00  0.1000000000D+01
 p    3  1.00
  0.5544410000D+02  0.3546088738D-01
  0.1263230000D+02  0.2374509155D+00
  0.3717560000D+01  0.8204577080D+00
 p    1  1.00
  0.1165450000D+01  0.1000000000D+01
 p    1  1.00
  0.3218920000D+00  0.1000000000D+01
  
   6 0
 s    6  1.00
  0.1142710000D+05  0.1800930156D-02
  0.1722350000D+04  0.1374190119D-01
  0.3957460000D+03  0.6813340591D-01
  0.1151390000D+03  0.2333250202D+00
  0.3360260000D+02  0.5890860511D+00
  0.4919010000D+01  0.2995050260D+00
 s    3  1.00
  0.5544410000D+02  0.1145360155D+00
  0.1263230000D+02  0.9205121249D+00
  0.3717560000D+01 -0.3378040458D-02
 s    1  1.00
  0.1165450000D+01  0.1000000000D+01
 s    1  1.00
  0.3218920000D+00  0.1000000000D+01
 p    3  1.00
  0.5544410000D+02  0.3546088738D-01
  0.1263230000D+02  0.2374509155D+00
  0.3717560000D+01  0.8204577080D+00
 p    1  1.00
  0.1165450000D+01  0.1000000000D+01
 p    1  1.00
  0.3218920000D+00  0.1000000000D+01
  
   7 0
 s    6  1.00
  0.1142710000D+05  0.1800930156D-02
  0.1722350000D+04  0.1374190119D-01
  0.3957460000D+03  0.6813340591D-01
  0.1151390000D+03  0.2333250202D+00
  0.3360260000D+02  0.5890860511D+00
  0.4919010000D+01  0.2995050260D+00
 s    3  1.00
  0.5544410000D+02  0.1145360155D+00
  0.1263230000D+02  0.9205121249D+00
  0.3717560000D+01 -0.3378040458D-02
 s    1  1.00
  0.1165450000D+01  0.1000000000D+01
 s    1  1.00
  0.3218920000D+00  0.1000000000D+01
 p    3  1.00
  0.5544410000D+02  0.3546088738D-01
  0.1263230000D+02  0.2374509155D+00
  0.3717560000D+01  0.8204577080D+00
 p    1  1.00
  0.1165450000D+01  0.1000000000D+01
 p    1  1.00
  0.3218920000D+00  0.1000000000D+01


[MO]
 Sym=      1.1
 Ene=     -92.5729
 Spin= Alpha
 Occup=    2.000000
1 0.41107468532160
2 0.65498751357929
3 0.012160856684190
4 -0.001363397286014
5 0.000366996212640
6 0.000002053633138
7 0.000000000000011
8 0.000000000000009
9 -0.000000000000039
10 -0.000000000000021
11 0.000000000000001
12 0.000000000000046
13 0.000000000000039
14 -0.000000000000035
15 -0.000000000000079
16 0.000000000000003
17 0.000000000000050
18 0.000000000000151
19 0.000000000000031
20 -0.000000000000131
21 0.000000000000043
22 0.000000310952272
23 -0.000000336463536
24 0.000010756975655
25 -0.000037263232633
26 -0.000000000000001
27 0.000000000000007
28 -0.000003923837625
29 0.000000000000001
30 -0.000000000000021
31 0.000010714644557
32 -0.000000000000013
33 0.000000000000031
34 0.000032755925865
35 0.000000310952273
36 -0.000000336463533
37 0.000010756975618
38 -0.000037263232493
39 0.000000000000000
40 -0.000003923837630
41 0.000000000000004
42 -0.000000000000013
43 0.000010714644548
44 -0.000000000000010
45 0.000000000000003
46 0.000032755925852
47 -0.000000000000016
48 0.000000310952273
49 -0.000000336463533
50 0.000010756975631
51 -0.000037263232563
52 -0.000003923837628
53 0.000000000000023
54 -0.000000000000008
55 0.000010714644546
56 -0.000000000000041
57 -0.000000000000005
58 0.000032755925853
59 0.000000000000041
60 -0.000000000000009
61 0.000000310952269
62 -0.000000336463542
63 0.000010756975692
64 -0.000037263232641
65 -0.000000000000006
66 0.000003923837638
67 -0.000000000000010
68 0.000000000000003
69 -0.000010714644524
70 0.000000000000006
71 -0.000000000000005
72 -0.000032755925851
73 -0.000000000000022
74 0.000000310952271
75 -0.000000336463538
76 0.000010756975648
77 -0.000037263232537
78 0.000003923837637
79 -0.000000000000026
80 0.000000000000002
81 -0.000010714644537
82 0.000000000000022
83 0.000000000000001
84 -0.000032755925828
85 0.000000000000011
86 -0.000000000000029
87 0.000000310952271
88 -0.000000336463536
89 0.000010756975635
90 -0.000037263232479
91 -0.000000000000005
92 -0.000000000000011
93 0.000003923837640
94 -0.000000000000011
95 0.000000000000002
96 -0.000010714644522
97 0.000000000000010
98 0.000000000000020
99 -0.000032755925824
 Sym=      2.1
 Ene=     -26.4216
 Spin= Alpha
 Occup=    2.000000
1 0.000000000000002
2 0.000000000000025
3 -0.000000000000052
4 -0.000000000000046
5 -0.000000000000569
6 0.000000000002542
7 0.000000000001450
8 0.000000000002721
9 0.000000000000330
10 0.000000000003964
11 0.000000000007342
12 0.000000000000598
13 -0.000000000004709
14 -0.000000000008632
15 -0.000000000000787
16 -0.000000000014741
17 -0.000000000028023
18 -0.000000000002557
19 -0.000000000038730
20 -0.000000000072408
21 -0.000000000006613
22 -0.078703819581990
23 -0.068050965771691
24 -0.000869881517071
25 0.000026278901692
26 0.000000000000749
27 0.000000000001447
28 0.000266836086296
29 -0.000000000000625
30 -0.000000000001144
31 -0.000084993171596
32 0.000000000008324
33 0.000000000015448
34 0.000036222285272
35 0.30455431080378
36 0.26333175556629
37 0.003366115718537
38 -0.000101689430980
39 0.000000000000792
40 -0.001032555735263
41 0.000000000000163
42 -0.000000000000660
43 0.000328891736167
44 -0.000000000000119
45 0.000000000008321
46 -0.000140166687360
47 0.000000000001408
48 -0.22585061802268
49 -0.19528089942972
50 -0.002496235629427
51 0.000075410667603
52 0.000765720080078
53 0.000000000001499
54 0.000000000000157
55 -0.000243898716070
56 -0.000000000001230
57 -0.000000000000174
58 0.000103944451500
59 0.000000000015526
60 0.000000000001498
61 0.30455446824033
62 0.26333189169008
63 0.003366117492472
64 -0.000101689604995
65 0.000000000000794
66 0.001032556269699
67 0.000000000000168
68 -0.000000000000652
69 -0.000328891923611
70 -0.000000000000103
71 0.000000000008307
72 0.000140166747681
73 0.000000000001378
74 -0.22585053424959
75 -0.19528082699783
76 -0.002496234686283
77 0.000075410575741
78 -0.000765719794565
79 0.000000000001497
80 0.000000000000166
81 0.000243898615414
82 -0.000000000001238
83 -0.000000000000145
84 -0.000103944419180
85 0.000000000015540
86 0.000000000001452
87 -0.078703805581763
88 -0.068050953666772
89 -0.000869881359429
90 0.000026278886129
91 0.000000000000748
92 0.000000000001442
93 -0.000266836038601
94 -0.000000000000630
95 -0.000000000001161
96 0.000084993154773
97 0.000000000008340
98 0.000000000015478
99 -0.000036222279955
 Sym=      3.1
 Ene=     -26.4216
 Spin= Alpha
 Occup=    2.000000
1 0.000000000000010
2 0.000000000000010
3 -0.000000000000036
4 -0.000000000000043
5 -0.000000000000466
6 0.000000000002090
7 -0.000000000001385
8 0.000000000000726
9 0.000000000001051
10 -0.000000000003880
11 0.000000000002077
12 0.000000000002634
13 0.000000000004550
14 -0.000000000002486
15 -0.000000000003419
16 0.000000000014492
17 -0.000000000007366
18 -0.000000000009559
19 0.000000000038071
20 -0.000000000020024
21 -0.000000000024928
22 -0.30622947639237
23 -0.26478018127923
24 -0.003384630669496
25 0.000102248842729
26 -0.000000000000856
27 0.000000000000430
28 0.001038235188106
29 0.000000000000675
30 -0.000000000000330
31 -0.000330700778548
32 -0.000000000008137
33 0.000000000004226
34 0.000140937650278
35 0.084955201819506
36 0.073456200244207
37 0.000938975513306
38 -0.000028366193104
39 -0.000000000000719
40 -0.000288030665458
41 0.000000000000553
42 0.000000000000590
43 0.000091744108625
44 -0.000000000000373
45 -0.000000000008147
46 -0.000039099394386
47 0.000000000005282
48 0.22127426751693
49 0.19132397493408
50 0.002445655076940
51 -0.000073882643155
52 -0.000750204499030
53 0.000000000000431
54 0.000000000000418
55 0.000238956661532
56 -0.000000000000340
57 -0.000000000000280
58 -0.000101838252457
59 0.000000000004258
60 0.000000000005271
61 0.084955245718277
62 0.073456238200104
63 0.000938976007471
64 -0.000028366240712
65 -0.000000000000722
66 0.000288030814933
67 0.000000000000557
68 0.000000000000579
69 -0.000091744161257
70 -0.000000000000358
71 -0.000000000008127
72 0.000039099411589
73 0.000000000005253
74 0.22127418523166
75 0.19132390378803
76 0.002445654149912
77 -0.000073882552278
78 0.000750204219396
79 0.000000000000434
80 0.000000000000415
81 -0.000238956563325
82 -0.000000000000328
83 -0.000000000000291
84 0.000101838220725
85 0.000000000004237
86 0.000000000005298
87 -0.30622942257127
88 -0.26478013474354
89 -0.003384630062670
90 0.000102248782565
91 -0.000000000000847
92 0.000000000000425
93 -0.001038235006252
94 0.000000000000708
95 -0.000000000000347
96 0.000330700714608
97 -0.000000000008190
98 0.000000000004256
99 -0.000140937629592
 Sym=      4.1
 Ene=     -26.4216
 Spin= Alpha
 Occup=    2.000000
1 -0.000000000000501
2 -0.000000000001724
3 0.000000000004975
4 0.000000000002101
5 0.000000000040962
6 -0.000000000181862
7 -0.000000789836811
8 -0.000013146612213
9 0.000001317709013
10 -0.000002130661445
11 -0.000035464262220
12 0.000003554647935
13 0.000002469945604
14 0.000041111551878
15 -0.000004120686117
16 0.000008220215347
17 0.000136823179089
18 -0.000013714037754
19 0.000021264314333
20 0.000353938548509
21 -0.000035475908754
22 -0.038551757818538
23 -0.033332836261975
24 -0.000434355867243
25 0.000042555202401
26 -0.000000414210332
27 -0.000006894414476
28 0.000130993794935
29 0.000000356062941
30 0.000005926566812
31 -0.000045921144956
32 -0.000004565560299
33 -0.000075992469898
34 0.000014769375140
35 0.38462545851229
36 0.33255701312714
37 0.004333507278092
38 -0.000424567040191
39 -0.000000414210275
40 -0.001306906652293
41 0.000000691039687
42 0.000000356062885
43 0.000458148818207
44 -0.000000594030620
45 -0.000004565560304
46 -0.000147352152336
47 0.000007616864433
48 0.023107897517940
49 0.019979679472935
50 0.000260352611589
51 -0.000025507544074
52 -0.000078517593494
53 -0.000006894414475
54 0.000000691039835
55 0.000027525108804
56 0.000005926566875
57 -0.000000594030684
58 -0.000008852777286
59 -0.000075992469950
60 0.000007616864409
61 -0.38462536378073
62 -0.33255693121556
63 -0.004333506255432
64 0.000424567110407
65 -0.000000414210345
66 -0.001306906330413
67 0.000000691039880
68 0.000000356062890
69 0.000458148721274
70 -0.000000594030670
71 -0.000004565560205
72 -0.000147352070928
73 0.000007616864364
74 -0.023108010173235
75 -0.019979776877371
76 -0.000260353880774
77 0.000025507683189
78 -0.000078517974139
79 -0.000006894414354
80 0.000000691039719
81 0.000027525235342
82 0.000005926566780
83 -0.000000594030604
84 -0.000008852791280
85 -0.000075992469962
86 0.000007616864398
87 0.038551660545448
88 0.033332752157560
89 0.000434354767930
90 -0.000042555068219
91 -0.000000414210280
92 -0.000006894414354
93 0.000130993466034
94 0.000000356062815
95 0.000005926566844
96 -0.000045921035104
97 -0.000004565560192
98 -0.000075992470015
99 0.000014769368741
 Sym=      5.1
 Ene=     -26.4216
 Spin= Alpha
 Occup=    2.000000
1 0.000000000000264
2 0.000000000000883
3 -0.000000000001931
4 -0.000000000002821
5 -0.000000000027075
6 0.000000000122833
7 -0.000012604206911
8 0.000001145640966
9 0.000003874930560
10 -0.000034001071280
11 0.000003090477681
12 0.000010453001217
13 0.000039415364041
14 -0.000003582601909
15 -0.000012117525500
16 0.000131178103640
17 -0.000011923242013
18 -0.000040328284530
19 0.000339335687912
20 -0.000030843421413
21 -0.000104322488233
22 -0.11336731748439
23 -0.098020283510051
24 -0.001277289601451
25 0.000125140017669
26 -0.000006609963507
27 0.000000600802931
28 0.000385207214763
29 0.000005682047526
30 -0.000000516461385
31 -0.000135038135844
32 -0.000072857158907
33 0.000006622244975
34 0.000043431653033
35 -0.033517553255500
36 -0.028980134183445
37 -0.000377636367593
38 0.000036998191289
39 -0.000006609963401
40 0.000113888231806
41 0.000002032111107
42 0.000005682047485
43 -0.000039924627746
44 -0.000001746840509
45 -0.000072857158913
46 0.000012840770230
47 0.000022398587526
48 0.36875643351969
49 0.31883624806252
50 0.004154713805688
51 -0.000407050233314
52 -0.001252985795451
53 0.000000600802957
54 0.000002032111101
55 0.000439246350792
56 -0.000000516461309
57 -0.000001746840521
58 -0.000141272603193
59 0.000006622244867
60 0.000022398587527
61 0.033517606898179
62 0.028980180563510
63 0.000377636975556
64 -0.000036998276609
65 -0.000006609963428
66 0.000113888413769
67 0.000002032111167
68 0.000005682047421
69 -0.000039924688664
70 -0.000001746840517
71 -0.000072857158867
72 0.000012840768524
73 0.000022398587483
74 -0.36875649933229
75 -0.31883630496866
76 -0.004154714517216
77 0.000407050187048
78 -0.001252986018860
79 0.000000600802971
80 0.000002032111178
81 0.000439246419218
82 -0.000000516461491
83 -0.000001746840533
84 -0.000141272659970
85 0.000006622245088
86 0.000022398587512
87 0.11336740862717
88 0.098020362314666
89 0.001277290624893
90 -0.000125140116572
91 -0.000006609963339
92 0.000000600802999
93 0.000385207523272
94 0.000005682047417
95 -0.000000516461415
96 -0.000135038236686
97 -0.000072857158904
98 0.000006622244978
99 0.000043431668278
 Sym=      6.1
 Ene=     -26.4216
 Spin= Alpha
 Occup=    2.000000
1 0.000000000000158
2 0.000000000000519
3 -0.000000000001038
4 -0.000000000001839
5 -0.000000000019489
6 0.000000000083805
7 -0.000003962794201
8 -0.000001023575111
9 -0.000012587381301
10 -0.000010690021915
11 -0.000002761193191
12 -0.000033955682566
13 0.000012392289110
14 0.000003200882522
15 0.000039362747679
16 0.000041242724121
17 0.000010652843366
18 0.000131002991352
19 0.000106687989630
20 0.000027557113811
21 0.000338882701880
22 0.36826419802834
23 0.31841064866194
24 0.004149167866471
25 -0.000406506850499
26 -0.000002078188993
27 -0.000000536788590
28 -0.001251313244428
29 0.000001786449905
30 0.000000461433520
31 0.000438660018884
32 -0.000022906473082
33 -0.000005916657487
34 -0.000141084031440
35 0.029946378152515
36 0.025892404810559
37 0.000337400566335
38 -0.000033056176199
39 -0.000002078189078
40 -0.000101753848834
41 -0.000006601139644
42 0.000001786449918
43 0.000035670798009
44 0.000005674462404
45 -0.000022906473056
46 -0.000011472615881
47 -0.000072759900428
48 0.11593795884422
49 0.10024292580620
50 0.001306252567625
51 -0.000127977628769
52 -0.000393941914948
53 -0.000000536788555
54 -0.000006601139661
55 0.000138100166895
56 0.000000461433417
57 0.000005674462429
58 -0.000044416461329
59 -0.000005916657439
60 -0.000072759900467
61 -0.029946313808203
62 -0.025892349177161
63 -0.000337399845624
64 0.000033056109472
65 -0.000002078188983
66 -0.000101753630495
67 -0.000006601139659
68 0.000001786449926
69 0.000035670726350
70 0.000005674462394
71 -0.000022906473147
72 -0.000011472604002
73 -0.000072759900424
74 -0.11593795322513
75 -0.10024292094894
76 -0.001306252495436
77 0.000127977581071
78 -0.000393941895870
79 -0.000000536788560
80 -0.000006601139619
81 0.000138100158847
82 0.000000461433435
83 0.000005674462305
84 -0.000044416476615
85 -0.000005916657426
86 -0.000072759900326
87 -0.36826421398124
88 -0.31841066245724
89 -0.004149168033497
90 0.000406506810844
91 -0.000002078189121
92 -0.000000536788522
93 -0.001251313297724
94 0.000001786450029
95 0.000000461433326
96 0.000438660033464
97 -0.000022906473186
98 -0.000005916657373
99 -0.000141084056371
 Sym=      7.1
 Ene=     -26.4216
 Spin= Alpha
 Occup=    2.000000
1 0.000004962927635
2 0.000016464548807
3 -0.000040384207375
4 -0.000040591615363
5 -0.000473973792404
6 0.002121512701066
7 0.000000000000788
8 -0.000000000001434
9 0.000000000000197
10 0.000000000002357
11 -0.000000000002507
12 0.000000000001151
13 -0.000000000003474
14 0.000000000002071
15 -0.000000000001142
16 -0.000000000005933
17 0.000000000014852
18 -0.000000000004086
19 -0.000000000020938
20 0.000000000030937
21 -0.000000000010554
22 0.22357566404993
23 0.19330081451518
24 0.002614105186066
25 -0.000669077790472
26 0.000000000000407
27 -0.000000000000769
28 -0.000753662435073
29 -0.000000000000210
30 0.000000000000511
31 0.000267789043566
32 0.000000000004193
33 -0.000000000006723
34 0.000120441733773
35 0.22357570846493
36 0.19330085291810
37 0.002614105686461
38 -0.000669077840681
39 0.000000000000429
40 -0.000753662585719
41 0.000000000000510
42 -0.000000000000307
43 0.000267789096235
44 -0.000000000000869
45 0.000000000004274
46 0.000120441717609
47 0.000000000002823
48 0.22357565077692
49 0.19330080303951
50 0.002614105037529
51 -0.000669077778393
52 -0.000753662389707
53 -0.000000000000746
54 0.000000000000421
55 0.000267789027902
56 0.000000000000470
57 -0.000000000000782
58 0.000120441739214
59 -0.000000000006712
60 0.000000000002795
61 0.22357564087131
62 0.19330079447462
63 0.002614104923701
64 -0.000669077763195
65 0.000000000000442
66 0.000753662356587
67 0.000000000000487
68 -0.000000000000294
69 -0.000267789015486
70 -0.000000000000803
71 0.000000000004249
72 -0.000120441742600
73 0.000000000002771
74 0.22357569956214
75 0.19330084522030
76 0.002614105583745
77 -0.000669077825837
78 0.000753662555998
79 -0.000000000000756
80 0.000000000000415
81 -0.000267789084942
82 0.000000000000488
83 -0.000000000000746
84 -0.000120441720480
85 -0.000000000006720
86 0.000000000002747
87 0.22357568697663
88 0.19330083433908
89 0.002614105442765
90 -0.000669077813956
91 0.000000000000452
92 -0.000000000000743
93 0.000753662512959
94 -0.000000000000286
95 0.000000000000524
96 -0.000267789069961
97 0.000000000004254
98 -0.000000000006749
99 -0.000120441725681
 Sym=      8.1
 Ene=      -9.5467
 Spin= Alpha
 Occup=    2.000000
1 -0.11983702095170
2 -0.32517175371263
3 0.53434882902486
4 0.58600485137057
5 0.034873111580250
6 -0.001673109735661
7 0.000000000000035
8 0.000000000000214
9 0.000000000000087
10 0.000000000000597
11 0.000000000000064
12 -0.000000000000599
13 -0.000000000000366
14 -0.000000000000403
15 0.000000000000783
16 0.000000000001474
17 0.000000000001106
18 0.000000000000351
19 -0.000000000000073
20 0.000000000000690
21 0.000000000000252
22 -0.000044009250146
23 -0.000069211536902
24 0.000470653391636
25 -0.001381384200306
26 -0.000000000000111
27 -0.000000000000073
28 -0.000216977677350
29 0.000000000000215
30 -0.000000000000006
31 0.000057029156027
32 -0.000000000000240
33 -0.000000000000125
34 0.001321532533646
35 -0.000044009250125
36 -0.000069211536863
37 0.000470653391405
38 -0.001381384200421
39 -0.000000000000113
40 -0.000216977677420
41 0.000000000000066
42 0.000000000000211
43 0.000057029156227
44 -0.000000000000072
45 -0.000000000000241
46 0.001321532533371
47 -0.000000000000005
48 -0.000044009250153
49 -0.000069211536930
50 0.000470653391734
51 -0.001381384200490
52 -0.000216977677537
53 -0.000000000000078
54 0.000000000000065
55 0.000057029156425
56 -0.000000000000016
57 -0.000000000000074
58 0.001321532533359
59 -0.000000000000135
60 -0.000000000000005
61 -0.000044009250098
62 -0.000069211536933
63 0.000470653391288
64 -0.001381384198936
65 -0.000000000000113
66 0.000216977677507
67 0.000000000000066
68 0.000000000000211
69 -0.000057029156333
70 -0.000000000000072
71 -0.000000000000241
72 -0.001321532532591
73 -0.000000000000005
74 -0.000044009250070
75 -0.000069211536866
76 0.000470653390958
77 -0.001381384198867
78 0.000216977677390
79 -0.000000000000078
80 0.000000000000065
81 -0.000057029156134
82 -0.000000000000016
83 -0.000000000000074
84 -0.001321532532603
85 -0.000000000000135
86 -0.000000000000005
87 -0.000044009250077
88 -0.000069211536894
89 0.000470653391056
90 -0.001381384199051
91 -0.000000000000111
92 -0.000000000000073
93 0.000216977677577
94 0.000000000000215
95 -0.000000000000006
96 -0.000057029156532
97 -0.000000000000240
98 -0.000000000000125
99 -0.001321532532316
 Sym=      9.1
 Ene=      -7.2307
 Spin= Alpha
 Occup=    2.000000
1 -0.000000000000039
2 -0.000000000000145
3 0.000000000000721
4 -0.000000000000782
5 -0.000000000000831
6 0.000000000005497
7 0.065145507881437
8 -0.067567149117306
9 0.36436058003782
10 0.12381990179128
11 -0.12842263480773
12 0.69252804535665
13 0.007895000220991
14 -0.008188479521623
15 0.044156948859067
16 -0.000816305223296
17 0.000846649577865
18 -0.004565617098093
19 0.000027991666306
20 -0.000029032195049
21 0.000156558143505
22 -0.000125069714872
23 -0.000185851047590
24 0.000395760978418
25 0.001282675756868
26 0.000005772095638
27 -0.000005986660758
28 -0.000332619910170
29 0.000012687648729
30 -0.000013159284859
31 -0.000458439958808
32 0.000041960397714
33 -0.000043520182479
34 -0.000747105883955
35 0.000023192970153
36 0.000034464280972
37 -0.000073390048640
38 -0.000237859828218
39 0.000005772095755
40 0.000061681148446
41 0.000032283487014
42 0.000012687648986
43 0.000085013260772
44 0.000070962362905
45 0.000041960397253
46 0.000138543568640
47 0.000234685631462
48 -0.000022361722339
49 -0.000033229063758
50 0.000070759713856
51 0.000229334805741
52 -0.000059470464768
53 -0.000005986660734
54 0.000032283486941
55 -0.000081966342023
56 -0.000013159284706
57 0.000070962363019
58 -0.000133578094632
59 -0.000043520182698
60 0.000234685631336
61 -0.000023192970240
62 -0.000034464281181
63 0.000073390050432
64 0.000237859824096
65 0.000005772095739
66 0.000061681148603
67 0.000032283486914
68 0.000012687649197
69 0.000085013261280
70 0.000070962363227
71 0.000041960397072
72 0.000138543566618
73 0.000234685631299
74 0.000022361722189
75 0.000033229063419
76 -0.000070759711275
77 -0.000229334810547
78 -0.000059470464362
79 -0.000005986660735
80 0.000032283486986
81 -0.000081966342382
82 -0.000013159284479
83 0.000070962363113
84 -0.000133578095760
85 -0.000043520182918
86 0.000234685631425
87 0.000125069714834
88 0.000185851047517
89 -0.000395760977655
90 -0.001282675759613
91 0.000005772095856
92 -0.000005986660711
93 -0.000332619909694
94 0.000012687649455
95 -0.000013159284326
96 -0.000458439959997
97 0.000041960396612
98 -0.000043520183136
99 -0.000747105883782
 Sym=     10.1
 Ene=      -7.2307
 Spin= Alpha
 Occup=    2.000000
1 -0.000000000000010
2 -0.000000000000037
3 0.000000000000329
4 -0.000000000000229
5 -0.000000000001004
6 0.000000000000195
7 0.065234654367030
8 0.36626162639127
9 0.056256111004072
10 0.12398933955377
11 0.69614130098148
12 0.10692412057576
13 0.007905803905640
14 0.044387337137078
15 0.006817692013661
16 -0.000817422272562
17 -0.004589438142993
18 -0.000704916712576
19 0.000028029970692
20 0.000157374983482
21 0.000024172077832
22 -0.000019310364949
23 -0.000028694808819
24 0.000061104232644
25 0.000198041044163
26 0.000005779994407
27 0.000032451925664
28 -0.000051355452779
29 0.000012705010798
30 0.000071332607872
31 -0.000070781666768
32 0.000042017817029
33 0.000235910100876
34 -0.000115350765278
35 -0.000125722264456
36 -0.000186820722908
37 0.000397825856022
38 0.001289368101093
39 0.000005779994091
40 -0.000334355349921
41 0.000004984467278
42 0.000012705011337
43 -0.000460831863167
44 0.000010956362563
45 0.000042017816737
46 -0.000751003899318
47 0.000036234712506
48 -0.000022392322583
49 -0.000033274534969
50 0.000070856542067
51 0.000229648634294
52 -0.000059551845319
53 0.000032451925365
54 0.000004984467407
55 -0.000082078506733
56 0.000071332608550
57 0.000010956362237
58 -0.000133760886285
59 0.000235910100270
60 0.000036234712815
61 0.000125722264311
62 0.000186820722807
63 -0.000397825855055
64 -0.001289368101914
65 0.000005779994718
66 -0.000334355349624
67 0.000004984467484
68 0.000012705010939
69 -0.000460831864100
70 0.000010956362317
71 0.000042017816571
72 -0.000751003897923
73 0.000036234712856
74 0.000022392322448
75 0.000033274534909
76 -0.000070856541228
77 -0.000229648635160
78 -0.000059551845085
79 0.000032451925868
80 0.000004984467356
81 -0.000082078506611
82 0.000071332607904
83 0.000010956362643
84 -0.000133760886266
85 0.000235910100649
86 0.000036234712547
87 0.000019310364886
88 0.000028694808687
89 -0.000061104231889
90 -0.000198041044797
91 0.000005779994403
92 0.000032451925570
93 -0.000051355452849
94 0.000012705011479
95 0.000071332608582
96 -0.000070781667235
97 0.000042017816279
98 0.000235910100044
99 -0.000115350764127
 Sym=     11.1
 Ene=      -7.2307
 Spin= Alpha
 Occup=    2.000000
1 0.000000000000159
2 0.000000000000462
3 -0.000000000001654
4 0.000000000000656
5 0.000000000001416
6 -0.000000000004979
7 0.36478540512876
8 -0.053432111280092
9 -0.075129932860799
10 0.69333549628840
11 -0.10155663815290
12 -0.14279696652822
13 0.044208433516967
14 -0.006475450788288
15 -0.009105015154974
16 -0.004570940365224
17 0.000669530608449
18 0.000941414974178
19 0.000156740681987
20 -0.000022958664038
21 -0.000032281765522
22 0.000025788956830
23 0.000038321864344
24 -0.000081604589823
25 -0.000264483450183
26 0.000032321127891
27 -0.000004734252289
28 0.000068585112771
29 0.000071045101562
30 -0.000010406363849
31 0.000094528786347
32 0.000234959262237
33 -0.000034415767057
34 0.000154050734125
35 0.000018341004185
36 0.000027254358545
37 -0.000058036862356
38 -0.000188099583354
39 0.000032321127787
40 0.000048777461312
41 -0.000006656747103
42 0.000071045101647
43 0.000067228499508
44 -0.000014632201583
45 0.000234959262221
46 0.000109560272470
47 -0.000048391392462
48 -0.000125215539452
49 -0.000186067739833
50 0.000396222413178
51 0.001284171292179
52 -0.000333007727018
53 -0.000004734252112
54 -0.000006656746944
55 -0.000458974475614
56 -0.000010406363709
57 -0.000014632201448
58 -0.000747976970501
59 -0.000034415767410
60 -0.000048391392795
61 -0.000018341004176
62 -0.000027254358360
63 0.000058036861187
64 0.000188099586399
65 0.000032321127804
66 0.000048777461010
67 -0.000006656746952
68 0.000071045101180
69 0.000067228498686
70 -0.000014632202224
71 0.000234959262513
72 0.000109560274108
73 -0.000048391391928
74 0.000125215539548
75 0.000186067740181
76 -0.000396222415469
77 -0.001284171287968
78 -0.000333007727155
79 -0.000004734252235
80 -0.000006656747111
81 -0.000458974476495
82 -0.000010406364603
83 -0.000014632202360
84 -0.000747976968822
85 -0.000034415766289
86 -0.000048391391595
87 -0.000025788956889
88 -0.000038321864367
89 0.000081604589972
90 0.000264483451718
91 0.000032321127701
92 -0.000004734252057
93 0.000068585112936
94 0.000071045101265
95 -0.000010406364463
96 0.000094528786056
97 0.000234959262497
98 -0.000034415766641
99 0.000154050734420
 Sym=     12.1
 Ene=      -1.9338
 Spin= Alpha
 Occup=    2.000000
1 0.018483385946222
2 0.052470285645829
3 -0.10339412112965
4 -0.21872932495022
5 0.44204340003594
6 -0.10843471732860
7 -0.000000000001378
8 0.000000000000225
9 0.000000000000151
10 -0.000000000002443