[Molden Format]
[Atoms] Angs
S     1   16         0.0000000000        0.0000000000        0.0000000000
F     2    9         0.0000000000        0.0000000000        1.5607000000
F     3    9         0.0000000000        1.5607000000        0.0000000000
F     4    9         1.5607000000        0.0000000000        0.0000000000
F     5    9         0.0000000000       -1.5607000000        0.0000000000
F     6    9        -1.5607000000        0.0000000000        0.0000000000
F     7    9         0.0000000000        0.0000000000       -1.5607000000
[GTO]
   1 0
 s    6  1.00
  0.9341340000D+05  0.7429999567D-03
  0.1396170000D+05  0.5792999662D-02
  0.3169910000D+04  0.2995399825D-01
  0.9024560000D+03  0.1190279931D+00
  0.2971580000D+03  0.3684319785D+00
  0.1087020000D+03  0.5772989663D+00
 s    3  1.00
  0.1087020000D+03  0.1431860600D+00
  0.4315530000D+02  0.6244652619D+00
  0.1810790000D+02  0.2833661188D+00
 s    1  1.00
  0.5560090000D+01  0.1000000000D+01
 s    1  1.00
  0.2131830000D+01  0.1000000000D+01
 s    1  1.00
  0.4204030000D+00  0.1000000000D+01
 s    1  1.00
  0.1360450000D+00  0.1000000000D+01
 p    4  1.00
  0.4950400000D+03  0.8309002513D-02
  0.1172210000D+03  0.6402401937D-01
  0.3777490000D+02  0.2776140840D+00
  0.1405840000D+02  0.7450762254D+00
 p    2  1.00
  0.5565740000D+01  0.6137116720D+00
  0.2262970000D+01  0.4438177628D+00
 p    1  1.00
  0.8079940000D+00  0.1000000000D+01
 p    1  1.00
  0.2774600000D+00  0.1000000000D+01
 p    1  1.00
  0.7714100000D-01  0.1000000000D+01
  
   2 0
 s    6  1.00
  0.1142710000D+05  0.1800930156D-02
  0.1722350000D+04  0.1374190119D-01
  0.3957460000D+03  0.6813340591D-01
  0.1151390000D+03  0.2333250202D+00
  0.3360260000D+02  0.5890860511D+00
  0.4919010000D+01  0.2995050260D+00
 s    3  1.00
  0.5544410000D+02  0.1145360155D+00
  0.1263230000D+02  0.9205121249D+00
  0.3717560000D+01 -0.3378040458D-02
 s    1  1.00
  0.1165450000D+01  0.1000000000D+01
 s    1  1.00
  0.3218920000D+00  0.1000000000D+01
 p    3  1.00
  0.5544410000D+02  0.3546088738D-01
  0.1263230000D+02  0.2374509155D+00
  0.3717560000D+01  0.8204577080D+00
 p    1  1.00
  0.1165450000D+01  0.1000000000D+01
 p    1  1.00
  0.3218920000D+00  0.1000000000D+01
  
   3 0
 s    6  1.00
  0.1142710000D+05  0.1800930156D-02
  0.1722350000D+04  0.1374190119D-01
  0.3957460000D+03  0.6813340591D-01
  0.1151390000D+03  0.2333250202D+00
  0.3360260000D+02  0.5890860511D+00
  0.4919010000D+01  0.2995050260D+00
 s    3  1.00
  0.5544410000D+02  0.1145360155D+00
  0.1263230000D+02  0.9205121249D+00
  0.3717560000D+01 -0.3378040458D-02
 s    1  1.00
  0.1165450000D+01  0.1000000000D+01
 s    1  1.00
  0.3218920000D+00  0.1000000000D+01
 p    3  1.00
  0.5544410000D+02  0.3546088738D-01
  0.1263230000D+02  0.2374509155D+00
  0.3717560000D+01  0.8204577080D+00
 p    1  1.00
  0.1165450000D+01  0.1000000000D+01
 p    1  1.00
  0.3218920000D+00  0.1000000000D+01
  
   4 0
 s    6  1.00
  0.1142710000D+05  0.1800930156D-02
  0.1722350000D+04  0.1374190119D-01
  0.3957460000D+03  0.6813340591D-01
  0.1151390000D+03  0.2333250202D+00
  0.3360260000D+02  0.5890860511D+00
  0.4919010000D+01  0.2995050260D+00
 s    3  1.00
  0.5544410000D+02  0.1145360155D+00
  0.1263230000D+02  0.9205121249D+00
  0.3717560000D+01 -0.3378040458D-02
 s    1  1.00
  0.1165450000D+01  0.1000000000D+01
 s    1  1.00
  0.3218920000D+00  0.1000000000D+01
 p    3  1.00
  0.5544410000D+02  0.3546088738D-01
  0.1263230000D+02  0.2374509155D+00
  0.3717560000D+01  0.8204577080D+00
 p    1  1.00
  0.1165450000D+01  0.1000000000D+01
 p    1  1.00
  0.3218920000D+00  0.1000000000D+01
  
   5 0
 s    6  1.00
  0.1142710000D+05  0.1800930156D-02
  0.1722350000D+04  0.1374190119D-01
  0.3957460000D+03  0.6813340591D-01
  0.1151390000D+03  0.2333250202D+00
  0.3360260000D+02  0.5890860511D+00
  0.4919010000D+01  0.2995050260D+00
 s    3  1.00
  0.5544410000D+02  0.1145360155D+00
  0.1263230000D+02  0.9205121249D+00
  0.3717560000D+01 -0.3378040458D-02
 s    1  1.00
  0.1165450000D+01  0.1000000000D+01
 s    1  1.00
  0.3218920000D+00  0.1000000000D+01
 p    3  1.00
  0.5544410000D+02  0.3546088738D-01
  0.1263230000D+02  0.2374509155D+00
  0.3717560000D+01  0.8204577080D+00
 p    1  1.00
  0.1165450000D+01  0.1000000000D+01
 p    1  1.00
  0.3218920000D+00  0.1000000000D+01
  
   6 0
 s    6  1.00
  0.1142710000D+05  0.1800930156D-02
  0.1722350000D+04  0.1374190119D-01
  0.3957460000D+03  0.6813340591D-01
  0.1151390000D+03  0.2333250202D+00
  0.3360260000D+02  0.5890860511D+00
  0.4919010000D+01  0.2995050260D+00
 s    3  1.00
  0.5544410000D+02  0.1145360155D+00
  0.1263230000D+02  0.9205121249D+00
  0.3717560000D+01 -0.3378040458D-02
 s    1  1.00
  0.1165450000D+01  0.1000000000D+01
 s    1  1.00
  0.3218920000D+00  0.1000000000D+01
 p    3  1.00
  0.5544410000D+02  0.3546088738D-01
  0.1263230000D+02  0.2374509155D+00
  0.3717560000D+01  0.8204577080D+00
 p    1  1.00
  0.1165450000D+01  0.1000000000D+01
 p    1  1.00
  0.3218920000D+00  0.1000000000D+01
  
   7 0
 s    6  1.00
  0.1142710000D+05  0.1800930156D-02
  0.1722350000D+04  0.1374190119D-01
  0.3957460000D+03  0.6813340591D-01
  0.1151390000D+03  0.2333250202D+00
  0.3360260000D+02  0.5890860511D+00
  0.4919010000D+01  0.2995050260D+00
 s    3  1.00
  0.5544410000D+02  0.1145360155D+00
  0.1263230000D+02  0.9205121249D+00
  0.3717560000D+01 -0.3378040458D-02
 s    1  1.00
  0.1165450000D+01  0.1000000000D+01
 s    1  1.00
  0.3218920000D+00  0.1000000000D+01
 p    3  1.00
  0.5544410000D+02  0.3546088738D-01
  0.1263230000D+02  0.2374509155D+00
  0.3717560000D+01  0.8204577080D+00
 p    1  1.00
  0.1165450000D+01  0.1000000000D+01
 p    1  1.00
  0.3218920000D+00  0.1000000000D+01
 
 
[MO]
 Sym=      1.1
 Ene=     -92.5735
 Spin= Alpha
 Occup=    2.000000
1 0.41107442956075
2 0.65498721787268
3 0.012162518061491
4 -0.001364703184298
5 0.000367046340657
6 0.000006783889439
7 -0.000000000000004
8 -0.000000000000015
9 0.000000000000021
10 0.000000000000005
11 0.000000000000019
12 -0.000000000000027
13 0.000000000000000
14 -0.000000000000034
15 0.000000000000040
16 0.000000000000016
17 0.000000000000039
18 -0.000000000000067
19 0.000000000000043
20 0.000000000000060
21 0.000000000000090
22 0.000000316008597
23 -0.000000347991661
24 0.000011007161136
25 -0.000038708282733
26 -0.000000000000002
27 0.000000000000001
28 -0.000004009537740
29 -0.000000000000002
30 0.000000000000007
31 0.000011014135947
32 -0.000000000000006
33 -0.000000000000023
34 0.000033198688073
35 0.000000316008598
36 -0.000000347991660
37 0.000011007161129
38 -0.000038708282743
39 0.000000000000001
40 -0.000004009537743
41 -0.000000000000001
42 0.000000000000006
43 0.000011014135938
44 0.000000000000002
45 -0.000000000000017
46 0.000033198688107
47 -0.000000000000015
48 0.000000316008596
49 -0.000000347991663
50 0.000011007161152
51 -0.000038708282756
52 -0.000004009537739
53 0.000000000000001
54 -0.000000000000001
55 0.000011014135946
56 0.000000000000008
57 0.000000000000000
58 0.000033198688100
59 -0.000000000000024
60 -0.000000000000013
61 0.000000316008595
62 -0.000000347991663
63 0.000011007161145
64 -0.000038708282692
65 -0.000000000000002
66 0.000004009537740
67 -0.000000000000001
68 -0.000000000000003
69 -0.000011014135940
70 0.000000000000001
71 -0.000000000000005
72 -0.000033198688097
73 -0.000000000000012
74 0.000000316008597
75 -0.000000347991660
76 0.000011007161122
77 -0.000038708282679
78 0.000004009537745
79 0.000000000000001
80 -0.000000000000000
81 -0.000011014135932
82 0.000000000000006
83 0.000000000000002
84 -0.000033198688105
85 -0.000000000000023
86 -0.000000000000014
87 0.000000316008596
88 -0.000000347991662
89 0.000011007161138
90 -0.000038708282703
91 0.000000000000001
92 0.000000000000001
93 0.000004009537744
94 0.000000000000005
95 0.000000000000007
96 -0.000011014135931
97 -0.000000000000016
98 -0.000000000000023
99 -0.000033198688132
 Sym=      2.1
 Ene=     -26.4215
 Spin= Alpha
 Occup=    2.000000
1 0.000000000000004
2 0.000000000000012
3 -0.000000000000029
4 -0.000000000000032
5 -0.000000000000350
6 0.000000000001586
7 -0.000000000007439
8 0.000000000002486
9 0.000000000000859
10 -0.000000000020436
11 0.000000000006829
12 0.000000000002557
13 0.000000000023111
14 -0.000000000007666
15 -0.000000000002949
16 0.000000000081011
17 -0.000000000027174
18 -0.000000000009747
19 0.000000000203466
20 -0.000000000068284
21 -0.000000000024341
22 -0.062104765993640
23 -0.053698703271918
24 -0.000687193233926
25 0.000020961271175
26 -0.000000000003875
27 0.000000000001268
28 0.000211450021969
29 0.000000000003256
30 -0.000000000001019
31 -0.000067183601549
32 -0.000000000043728
33 0.000000000014610
34 0.000028572568013
35 -0.23743404528190
36 -0.20529664898193
37 -0.002627222991439
38 0.000080137459910
39 -0.000000000003934
40 0.000808399053413
41 0.000000000000461
42 0.000000000003293
43 -0.000256851045757
44 -0.000000000000453
45 -0.000000000043723
46 0.000109236391684
47 0.000000000005347
48 0.29953893215089
49 0.25899545676576
50 0.003314417588908
51 -0.000101098866414
52 -0.001019849487983
53 0.000000000001300
54 0.000000000000523
55 0.000324034791686
56 -0.000000000001160
57 -0.000000000000456
58 -0.000137809005380
59 0.000000000014755
60 0.000000000005265
61 -0.23743389677028
62 -0.20529652057514
63 -0.002627221316522
64 0.000080137295090
65 -0.000000000003938
66 -0.000808398546067
67 0.000000000000466
68 0.000000000003289
69 0.000256850868143
70 -0.000000000000423
71 -0.000000000043714
72 -0.000109236334896
73 0.000000000005298
74 0.29953848946242
75 0.25899507400637
76 0.003314412596244
77 -0.000101098374995
78 0.001019847976071
79 0.000000000001300
80 0.000000000000523
81 -0.000324034262536
82 -0.000000000001153
83 -0.000000000000457
84 0.000137808836474
85 0.000000000014745
86 0.000000000005266
87 -0.062104712572797
88 -0.053698657083139
89 -0.000687192631621
90 0.000020961212232
91 -0.000000000003875
92 0.000000000001257
93 -0.000211449839236
94 0.000000000003257
95 -0.000000000001041
96 0.000067183537577
97 -0.000000000043730
98 0.000000000014656
99 -0.000028572547798
 Sym=      3.1
 Ene=     -26.4215
 Spin= Alpha
 Occup=    2.000000
1 -0.000000000000004
2 -0.000000000000014
3 0.000000000000035
4 0.000000000000038
5 0.000000000000415
6 -0.000000000001885
7 0.000000000002637
8 0.000000000002284
9 -0.000000000004550
10 0.000000000006861
11 0.000000000006063
12 -0.000000000012389
13 -0.000000000007958
14 -0.000000000007004
15 0.000000000014270
16 -0.000000000027262
17 -0.000000000024279
18 0.000000000048498
19 -0.000000000068795
20 -0.000000000060524
21 0.000000000122817
22 0.31002145523616
23 0.26805913952542
24 0.003430407361585
25 -0.000104636799492
26 0.000000000001352
27 0.000000000001143
28 -0.001055539658280
29 -0.000000000001104
30 -0.000000000000882
31 0.000335374549512
32 0.000000000014724
33 0.000000000012890
34 -0.000142631712248
35 -0.20879500872277
36 -0.18053399024615
37 -0.002310330209574
38 0.000070471368431
39 0.000000000001281
40 0.000710890837203
41 -0.000000000002430
42 -0.000000000001091
43 -0.000225869951265
44 0.000000000001993
45 0.000000000014796
46 0.000096060416202
47 -0.000000000026337
48 -0.10122645410477
49 -0.087525155843390
50 -0.001120077238724
51 0.000034165441656
52 0.000344648846229
53 0.000000000001142
54 -0.000000000002393
55 -0.000109504606817
56 -0.000000000000949
57 0.000000000001924
58 0.000046571298247
59 0.000000000012993
60 -0.000000000026314
61 -0.20879487819089
62 -0.18053387738432
63 -0.002310328736288
64 0.000070471221596
65 0.000000000001287
66 -0.000710890392774
67 -0.000000000002393
68 -0.000000000001112
69 0.000225869796062
70 0.000000000001995
71 0.000000000014820
72 -0.000096060366769
73 -0.000000000026384
74 -0.10122630457576
75 -0.087525026556705
76 -0.001120075552081
77 0.000034165275397
78 -0.000344648335681
79 0.000000000001154
80 -0.000000000002389
81 0.000109504427985
82 -0.000000000000948
83 0.000000000001927
84 -0.000046571241044
85 0.000000000012976
86 -0.000000000026323
87 0.31002118917765
88 0.26805890948459
89 0.003430404361263
90 -0.000104636504019
91 0.000000000001354
92 0.000000000001161
93 0.001055538749609
94 -0.000000000001113
95 -0.000000000000942
96 -0.000335374231196
97 0.000000000014735
98 0.000000000012956
99 0.000142631610654
 Sym=      4.1
 Ene=     -26.4215
 Spin= Alpha
 Occup=    2.000000
1 -0.000000000001073
2 -0.000000000003540
3 0.000000000007879
4 0.000000000010984
5 0.000000000109842
6 -0.000000000496414
7 0.000013286368528
8 -0.000000991800494
9 -0.000000774659766
10 0.000035676007301
11 -0.000002663141668
12 -0.000002080084368
13 -0.000040900485134
14 0.000003053138354
15 0.000002384696781
16 -0.000141511094952
17 0.000010563516548
18 0.000008250783614
19 -0.000355488779979
20 0.000026536517234
21 0.000020726721122
22 0.022477312183730
23 0.019434476708626
24 0.000253541213424
25 -0.000025033009353
26 0.000006861235389
27 -0.000000512177276
28 -0.000076705710480
29 -0.000005590175920
30 0.000000417295269
31 0.000026850104071
32 0.000076254671765
33 -0.000005692256761
34 -0.000008571430233
35 0.028777849816916
36 0.024882087654274
37 0.000324610474000
38 -0.000032049931320
39 0.000006861235393
40 -0.000098206822171
41 -0.000000400043336
42 -0.000005590175895
43 0.000034376360602
44 0.000000325934374
45 0.000076254671724
46 -0.000010974046868
47 -0.000004446017416
48 -0.38551600485815
49 -0.33332730157587
50 -0.004348571407994
51 0.000429350253295
52 0.001315605626878
53 -0.000000512177269
54 -0.000000400043349
55 -0.000460515078177
56 0.000000417295271
57 0.000000325934430
58 0.000147010749905
59 -0.000005692256745
60 -0.000004446017471
61 -0.028778149190069
62 -0.024882346499168
63 -0.000324613850860
64 0.000032050308412
65 0.000006861235470
66 -0.000098207840756
67 -0.000000400043317
68 -0.000005590176048
69 0.000034376697050
70 0.000000325934400
71 0.000076254671844
72 -0.000010974080128
73 -0.000004446017459
74 0.38551629326545
75 0.33332755095292
76 0.004348574533883
77 -0.000429350073410
78 0.001315606610844
79 -0.000000512177380
80 -0.000000400043295
81 -0.000460515378404
82 0.000000417295350
83 0.000000325934353
84 0.000147010986996
85 -0.000005692256780
86 -0.000004446017424
87 -0.022477612752097
88 -0.019434736586941
89 -0.000253544603765
90 0.000025033387118
91 0.000006861235472
92 -0.000000512177373
93 -0.000076706732714
94 -0.000005590176033
95 0.000000417295355
96 0.000026850441470
97 0.000076254671817
98 -0.000005692256767
99 -0.000008571463968
 Sym=      5.1
 Ene=     -26.4215
 Spin= Alpha
 Occup=    2.000000
1 0.000000000000517
2 0.000000000001721
3 -0.000000000004566
4 -0.000000000003315
5 -0.000000000045469
6 0.000000000204131
7 -0.000000845516079
8 -0.000013119708767
9 0.000002295582509
10 -0.000002270344808
11 -0.000035228499404
12 0.000006164003219
13 0.000002602819404
14 0.000040387443135
15 -0.000007066674246
16 0.000009005463447
17 0.000139736027131
18 -0.000024449900949
19 0.000022622545709
20 0.000351029647680
21 -0.000061420381645
22 -0.066608342623518
23 -0.057591329100672
24 -0.000751333610620
25 0.000074181863803
26 -0.000000436634418
27 -0.000006775170382
28 0.000227306544438
29 0.000000355746872
30 0.000005520054689
31 -0.000079566469166
32 -0.000004852684197
33 -0.000075298158715
34 0.000025400118238
35 0.38068030184685
36 0.32914622526700
37 0.004294025258317
38 -0.000423964574999
39 -0.000000436634275
40 -0.001299103385776
41 0.000001185465487
42 0.000000355746820
43 0.000454738615601
44 -0.000000965855323
45 -0.000004852684274
46 -0.000145166763784
47 0.000013175074139
48 0.024533462514633
49 0.021212278492166
50 0.000276734332085
51 -0.000027322996724
52 -0.000083722493043
53 -0.000006775170389
54 0.000001185465424
55 0.000029306249494
56 0.000005520054665
57 -0.000000965855238
58 -0.000009355454084
59 -0.000075298158677
60 0.000013175074122
61 -0.38068042514051
62 -0.32914633187515
63 -0.004294026595202
64 0.000423964502156
65 -0.000000436634426
66 -0.001299103806122
67 0.000001185465599
68 0.000000355746862
69 0.000454738743138
70 -0.000000965855383
71 -0.000004852684187
72 -0.000145166862838
73 0.000013175074195
74 -0.024533384005818
75 -0.021212210612569
76 -0.000276733435912
77 0.000027322855648
78 -0.000083722226646
79 -0.000006775170397
80 0.000001185465654
81 0.000029306159044
82 0.000005520054667
83 -0.000000965855477
84 -0.000009355460456
85 -0.000075298158692
86 0.000013175074230
87 0.066608514498533
88 0.057591477709340
89 0.000751335539724
90 -0.000074182036143
91 -0.000000436634280
92 -0.000006775170391
93 0.000227307128146
94 0.000000355746820
95 0.000005520054687
96 -0.000079566660585
97 -0.000004852684279
98 -0.000075298158722
99 0.000025400155383
 Sym=      6.1
 Ene=     -26.4215
 Spin= Alpha
 Occup=    2.000000
1 0.000000000000870
2 0.000000000002833
3 -0.000000000006568
4 -0.000000000008238
5 -0.000000000083817
6 0.000000000381887
7 -0.000000932131178
8 -0.000002236275537
9 -0.000013124083123
10 -0.000002502920090
11 -0.000006004754589
12 -0.000035240245244
13 0.000002869453553
14 0.000006884104876
15 0.000040400909062
16 0.000009927987723
17 0.000023818231388
18 0.000139782617733
19 0.000024940010848
20 0.000059833570082
21 0.000351146687521
22 0.38080723369555
23 0.32925597388900
24 0.004295457044668
25 -0.000424105985177
26 -0.000000481363324
27 -0.000001154838799
28 -0.001299536550270
29 0.000000392189645
30 0.000000940902302
31 0.000454890241714
32 -0.000005349795664
33 -0.000012834692740
34 -0.000145215148850
35 0.064887669807156
36 0.056103590019604
37 0.000731924643068
38 -0.000072265576716
39 -0.000000481363462
40 -0.000221434601613
41 -0.000006777429380
42 0.000000392189820
43 0.000077511041133
44 0.000005521895152
45 -0.000005349795738
46 -0.000024743917803
47 -0.000075323264476
48 0.027046727413263
49 0.023385313583333
50 0.000305083640905
51 -0.000030122037323
52 -0.000092299219410
53 -0.000001154838683
54 -0.000006777429339
55 0.000032308446659
56 0.000000940902189
57 0.000005521895168
58 -0.000010313835501
59 -0.000012834692679
60 -0.000075323264538
61 -0.064887495102203
62 -0.056103438966204
63 -0.000731922658264
64 0.000072265303218
65 -0.000000481363329
66 -0.000221434008292
67 -0.000006777429337
68 0.000000392189643
69 0.000077510842749
70 0.000005521895178
71 -0.000005349795633
72 -0.000024743917513
73 -0.000075323264549
74 -0.027046551931070
75 -0.023385161858299
76 -0.000305081647990
77 0.000030121764083
78 -0.000092298622906
79 -0.000001154838774
80 -0.000006777429378
81 0.000032308246952
82 0.000000940902274
83 0.000005521895166
84 -0.000010313834684
85 -0.000012834692721
86 -0.000075323264493
87 -0.38080734517630
88 -0.32925607028506
89 -0.004295458225720
90 0.000424105807371
91 -0.000000481363467
92 -0.000001154838662
93 -0.001299536932426
94 0.000000392189820
95 0.000000940902156
96 0.000454890353760
97 -0.000005349795710
98 -0.000012834692649
99 -0.000145215280424
 Sym=      7.1
 Ene=     -26.4214
 Spin= Alpha
 Occup=    2.000000
1 0.000005007556445
2 0.000016437041796
3 -0.000039557640790
4 -0.000043425491716
5 -0.000472307340647
6 0.002142522794041
7 0.000000000003213
8 0.000000000001603
9 0.000000000001965
10 0.000000000009356
11 0.000000000003475
12 0.000000000005403
13 -0.000000000011713
14 -0.000000000003294
15 -0.000000000006844
16 -0.000000000032708
17 -0.000000000017748
18 -0.000000000018804
19 -0.000000000089263
20 -0.000000000037377
21 -0.000000000051739
22 0.22357503122424
23 0.19330039624588
24 0.002617664501025
25 -0.000676244774852
26 0.000000000001638
27 0.000000000000501
28 -0.000757081141235
29 -0.000000000001566
30 -0.000000000000304
31 0.000269105524020
32 0.000000000019146
33 0.000000000008109
34 0.000121308313456
35 0.22357504620165
36 0.19330040919551
37 0.002617664667790
38 -0.000676244788062
39 0.000000000001649
40 -0.000757081193104
41 0.000000000001072
42 -0.000000000001574
43 0.000269105541669
44 -0.000000000001133
45 0.000000000019160
46 0.000121308307187
47 0.000000000011315
48 0.22357499015918
49 0.19330036074036
50 0.002617664037902
51 -0.000676244729732
52 -0.000757081000398
53 0.000000000000517
54 0.000000000001085
55 0.000269105475084
56 -0.000000000000290
57 -0.000000000001123
58 0.000121308328819
59 0.000000000008078
60 0.000000000011325
61 0.22357512805934
62 0.19330047997246
63 0.002617665593674
64 -0.000676244883305
65 0.000000000001690
66 0.000757081470885
67 0.000000000001040
68 -0.000000000001606
69 -0.000269105639748
70 -0.000000000001118
71 0.000000000019158
72 -0.000121308276283
73 0.000000000011335
74 0.22357518349490
75 0.19330052790286
76 0.002617666216760
77 -0.000676244941340
78 0.000757081661488
79 0.000000000000530
80 0.000000000001135
81 -0.000269105705656
82 -0.000000000000318
83 -0.000000000001170
84 -0.000121308254914
85 0.000000000008102
86 0.000000000011337
87 0.22357514368981
88 0.19330049348675
89 0.002617665767666
90 -0.000676244896741
91 0.000000000001658
92 0.000000000000517
93 0.000757081524922
94 -0.000000000001589
95 -0.000000000000279
96 -0.000269105658039
97 0.000000000019155
98 0.000000000008061
99 -0.000121308269749
 Sym=      8.1
 Ene=      -9.5476
 Spin= Alpha
 Occup=    2.000000
1 -0.11983506919790
2 -0.32516718806160
3 0.53433430324402
4 0.58599006835444
5 0.034911032139895
6 -0.001533164131097
7 -0.000000000000224
8 -0.000000000000154
9 0.000000000000008
10 0.000000000000171
11 -0.000000000000551
12 0.000000000000731
13 -0.000000000000233
14 0.000000000000833
15 -0.000000000001040
16 0.000000000001772
17 -0.000000000001380
18 0.000000000002853
19 -0.000000000000264
20 0.000000000000247
21 -0.000000000000781
22 -0.000044999140324
23 -0.000070794594939
24 0.000479191949754
25 -0.001425546940679
26 -0.000000000000017
27 -0.000000000000006
28 -0.000217745555922
29 0.000000000000049
30 -0.000000000000176
31 0.000057888039206
32 -0.000000000000175
33 0.000000000000308
34 0.001338704184011
35 -0.000044999140358
36 -0.000070794595003
37 0.000479191950061
38 -0.001425546940072
39 -0.000000000000018
40 -0.000217745555975
41 -0.000000000000024
42 0.000000000000036
43 0.000057888039436
44 -0.000000000000042
45 -0.000000000000133
46 0.001338704182561
47 -0.000000000000011
48 -0.000044999140317
49 -0.000070794594924
50 0.000479191949672
51 -0.001425546940499
52 -0.000217745555835
53 -0.000000000000006
54 0.000000000000005
55 0.000057888039313
56 -0.000000000000185
57 0.000000000000052
58 0.001338704183646
59 0.000000000000320
60 -0.000000000000155
61 -0.000044999140328
62 -0.000070794594944
63 0.000479191949681
64 -0.001425546940228
65 -0.000000000000018
66 0.000217745555792
67 -0.000000000000024
68 0.000000000000036
69 -0.000057888039470
70 -0.000000000000042
71 -0.000000000000133
72 -0.001338704182927
73 -0.000000000000011
74 -0.000044999140369
75 -0.000070794595022
76 0.000479191950070
77 -0.001425546939801
78 0.000217745555932
79 -0.000000000000006
80 0.000000000000005
81 -0.000057888039593
82 -0.000000000000185
83 0.000000000000052
84 -0.001338704181843
85 0.000000000000320
86 -0.000000000000155
87 -0.000044999140362
88 -0.000070794595007
89 0.000479191949988
90 -0.001425546939621
91 -0.000000000000017
92 -0.000000000000006
93 0.000217745555844
94 0.000000000000049
95 -0.000000000000176
96 -0.000057888039701
97 -0.000000000000175
98 0.000000000000308
99 -0.001338704181478
 Sym=      9.1
 Ene=      -7.2316
 Spin= Alpha
 Occup=    2.000000
1 0.000000000000061
2 0.000000000000189
3 -0.000000000000916
4 0.000000000000863
5 -0.000000000001057
6 0.000000000001876
7 0.060108783550761
8 0.24347005393623
9 0.28048438907021
10 0.11424801275248
11 0.46276048497080
12 0.53311316859880
13 0.007289197661749
14 0.029524825541661
15 0.034013434180394
16 -0.000756921331519
17 -0.003065902627271
18 -0.003532006550524
19 0.000025463084443
20 0.000103137980450
21 0.000118817870898
22 -0.000098141427144
23 -0.000145640448166
24 0.000310569084460
25 0.000997629724586
26 0.000005420029464
27 0.000021953777322
28 -0.000258518756844
29 0.000011910169082
30 0.000048242025817
31 -0.000358092004929
32 0.000038961902692
33 0.000157814815921
34 -0.000577725751430
35 -0.000085190119338
36 -0.000126420896072
37 0.000269584600442
38 0.000865976760515
39 0.000005420029428
40 -0.000224403133104
41 0.000025291372414
42 0.000011910168536
43 -0.000310836121814
44 0.000055576177919
45 0.000038961903523
46 -0.000501485734414
47 0.000181807132651
48 -0.000021032050369
49 -0.000031211256324
50 0.000066556038539
51 0.000213795532047
52 -0.000055401471490
53 0.000021953777294
54 0.000025291372272
55 -0.000076740365985
56 0.000048242025413
57 0.000055576177611
58 -0.000123808645859
59 0.000157814816301
60 0.000181807133064
61 0.000085190119239
62 0.000126420895986
63 -0.000269584599396
64 -0.000865976762438
65 0.000005420029329
66 -0.000224403133130
67 0.000025291372373
68 0.000011910169169
69 -0.000310836121804
70 0.000055576177423
71 0.000038961902717
72 -0.000501485735189
73 0.000181807132957
74 0.000021032050395
75 0.000031211256448
76 -0.000066556039132
77 -0.000213795532022
78 -0.000055401472352
79 0.000021953777213
80 0.000025291372515
81 -0.000076740366972
82 0.000048242025053
83 0.000055576177730
84 -0.000123808644232
85 0.000157814816966
86 0.000181807132543
87 0.000098141427171
88 0.000145640448315
89 -0.000310569085008
90 -0.000997629724902
91 0.000005420029292
92 0.000021953777186
93 -0.000258518757054
94 0.000011910168622
95 0.000048242024650
96 -0.000358092004702
97 0.000038961903548
98 0.000157814817346
99 -0.000577725752188
 Sym=     10.1
 Ene=      -7.2316
 Spin= Alpha
 Occup=    2.000000
1 -0.000000000000077
2 -0.000000000000191
3 0.000000000000351
4 0.000000000000178
5 0.000000000001043
6 -0.000000000001401
7 0.018070844213731
8 0.28188017754623
9 -0.24855429111496
10 0.034347027476194
11 0.53576612628965
12 -0.47242403095724
13 0.002191392798314
14 0.034182696931936
15 -0.030141374531104
16 -0.000227557549097
17 -0.003549583051147
18 0.003129926008677
19 0.000007655111366
20 0.000119409150205
21 -0.000105291748218
22 0.000086969092794
23 0.000129060866816
24 -0.000275214171575
25 -0.000884060427415
26 0.000001629454310
27 0.000025417231125
28 0.000229089207354
29 0.000003580621575
30 0.000055852744323
31 0.000317327123329
32 0.000011713337537
33 0.000182711868698
34 0.000511957956995
35 -0.000098629813263
36 -0.000146365206177
37 0.000312114585617
38 0.001002594279263
39 0.000001629454198
40 -0.000259805236751
41 -0.000022412224609
42 0.000003580621265
43 -0.000359873995740
44 -0.000049249433546
45 0.000011713338023
46 -0.000580600717691
47 -0.000161110368260
48 -0.000006322984527
49 -0.000009383216824
50 0.000020009119031
51 0.000064274562623
52 -0.000016655658451
53 0.000025417231189
54 -0.000022412224513
55 -0.000023070891449
56 0.000055852744082
57 -0.000049249434321
58 -0.000037221294340
59 0.000182711868701
60 -0.000161110367386
61 0.000098629813225
62 0.000146365205980
63 -0.000312114584751
64 -0.001002594279487
65 0.000001629454093
66 -0.000259805236754
67 -0.000022412224676
68 0.000003580621841
69 -0.000359873996153
70 -0.000049249434713
71 0.000011713337414
72 -0.000580600716958
73 -0.000161110366829
74 0.000006322984448
75 0.000009383216916
76 -0.000020009119177
77 -0.000064274561974
78 -0.000016655658436
79 0.000025417231037
80 -0.000022412224772
81 -0.000023070891020
82 0.000055852744277
83 -0.000049249433938
84 -0.000037221294739
85 0.000182711868739
86 -0.000161110367703
87 -0.000086969092764
88 -0.000129060866733
89 0.000275214171008
90 0.000884060428446
91 0.000001629453981
92 0.000025417231101
93 0.000229089207398
94 0.000003580621530
95 0.000055852744036
96 0.000317327123960
97 0.000011713337899
98 0.000182711868742
99 0.000511957956299
 Sym=     11.1
 Ene=      -7.2316
 Spin= Alpha
 Occup=    2.000000
1 0.000000000000098
2 0.000000000000352
3 -0.000000000001891
4 0.000000000002056
5 0.000000000000135
6 -0.000000000006357
7 0.37097520707616
8 -0.053180107921529
9 -0.033339127043216
10 0.70510793406925
11 -0.10107876568266
12 -0.063367261597857
13 0.044986962840505
14 -0.006448979590243
15 -0.004042928046996
16 -0.004671514396285
17 0.000669671813677
18 0.000419823775206
19 0.000157151292472
20 -0.000022527981747
21 -0.000014123010931
22 0.000011665353326
23 0.000017311214441
24 -0.000036915074808
25 -0.000118580944400
26 0.000033450960073
27 -0.000004795268381
28 0.000030728233167
29 0.000073506351122
30 -0.000010537296985
31 0.000042563776779
32 0.000240462362208
33 -0.000034470805056
34 0.000068670031896
35 0.000018607708296
36 0.000027613568119
37 -0.000058884195768
38 -0.000189151545973
39 0.000033450960220
40 0.000049015403081
41 -0.000003006200331
42 0.000073506350981
43 0.000067894586667
44 -0.000006605933436
45 0.000240462362210
46 0.000109537352468
47 -0.000021610084024
48 -0.000129804144889
49 -0.000192627460098
50 0.000410765928841
51 0.001319488386610
52 -0.000341922948826
53 -0.000004795268200
54 -0.000003006200343
55 -0.000473620852600
56 -0.000010537297035
57 -0.000006605934064
58 -0.000764113580268
59 -0.000034470805250
60 -0.000021610083107
61 -0.000018607708256
62 -0.000027613567914
63 0.000058884194110
64 0.000189151550349
65 0.000033450960005
66 0.000049015403125
67 -0.000003006200431
68 0.000073506351496
69 0.000067894585237
70 -0.000006605933749
71 0.000240462362074
72 0.000109537355626
73 -0.000021610083188
74 0.000129804144779
75 0.000192627459962
76 -0.000410765928261
77 -0.001319488384608
78 -0.000341922948695
79 -0.000004795268499
80 -0.000003006200419
81 -0.000473620853642
82 -0.000010537295645
83 -0.000006605933121
84 -0.000764113577907
85 -0.000034470806620
86 -0.000021610084105
87 -0.000011665353378
88 -0.000017311214441
89 0.000036915074570
90 0.000118580947182
91 0.000033450960152
92 -0.000004795268318
93 0.000030728232981
94 0.000073506351355
95 -0.000010537295695
96 0.000042563776174
97 0.000240462362076
98 -0.000034470806815
99 0.000068670033978
 Sym=     12.1
 Ene=      -1.9372
 Spin= Alpha
 Occup=    2.000000
1 0.018556416508904
2 0.052677751608721
3 -0.10379396172040
4 -0.21955752913079
5 0.44339229921840
6 -0.10916740157949
7 -0.000000000001777
8 -0.000000000000385
9 -0.000000000001505
10 -0.000000000004442