[Molden Format]
[Atoms] Angs
C     1    6        -0.0003483060        0.0000000000        0.0000098633
H     2    1         1.0863300000        0.0000000000        0.0000033862
F     3    9        -0.4655110000        0.0000000000       -1.2480100000
F     4    9        -0.4655040000        1.0807900000        0.6239970000
F     5    9        -0.4655040000       -1.0807900000        0.6239970000
[GTO]
   1 0
 s    9  1.00
  0.6665000000D+04  0.6920001793D-03
  0.1000000000D+04  0.5329001381D-02
  0.2280000000D+03  0.2707700701D-01
  0.6471000000D+02  0.1017180264D+00
  0.2106000000D+02  0.2747400712D+00
  0.7495000000D+01  0.4485641162D+00
  0.2797000000D+01  0.2850740738D+00
  0.5215000000D+00  0.1520400394D-01
  0.1596000000D+00 -0.3191000827D-02
 s    9  1.00
  0.6665000000D+04 -0.1460000642D-03
  0.1000000000D+04 -0.1154000508D-02
  0.2280000000D+03 -0.5725002519D-02
  0.6471000000D+02 -0.2331201026D-01
  0.2106000000D+02 -0.6395502813D-01
  0.7495000000D+01 -0.1499810660D+00
  0.2797000000D+01 -0.1272620560D+00
  0.5215000000D+00  0.5445292395D+00
  0.1596000000D+00  0.5804962554D+00
 s    9  1.00
  0.6665000000D+04  0.0000000000D+00
  0.1000000000D+04  0.0000000000D+00
  0.2280000000D+03  0.0000000000D+00
  0.6471000000D+02  0.0000000000D+00
  0.2106000000D+02  0.0000000000D+00
  0.7495000000D+01  0.0000000000D+00
  0.2797000000D+01  0.0000000000D+00
  0.5215000000D+00  0.0000000000D+00
  0.1596000000D+00  0.1000000000D+01
 s    1  1.00
  0.4690000000D-01  0.1000000000D+01
 p    4  1.00
  0.9439000000D+01  0.3810902127D-01
  0.2002000000D+01  0.2094801169D+00
  0.5456000000D+00  0.5085572839D+00
  0.1517000000D+00  0.4688422617D+00
 p    4  1.00
  0.9439000000D+01  0.0000000000D+00
  0.2002000000D+01  0.0000000000D+00
  0.5456000000D+00  0.0000000000D+00
  0.1517000000D+00  0.1000000000D+01
 p    1  1.00
  0.4041000000D-01  0.1000000000D+01
 d    1  1.00
  0.5500000000D+00  0.1000000000D+01
 d    1  1.00
  0.1510000000D+00  0.1000000000D+01
  
   2 0
 s    4  1.00
  0.1301000000D+02  0.1968498999D-01
  0.1962000000D+01  0.1379769298D+00
  0.4446000000D+00  0.4781477569D+00
  0.1220000000D+00  0.5012397451D+00
 s    4  1.00
  0.1301000000D+02  0.0000000000D+00
  0.1962000000D+01  0.0000000000D+00
  0.4446000000D+00  0.0000000000D+00
  0.1220000000D+00  0.1000000000D+01
 s    1  1.00
  0.2974000000D-01  0.1000000000D+01
 p    1  1.00
  0.7270000000D+00  0.1000000000D+01
 p    1  1.00
  0.1410000000D+00  0.1000000000D+01
  
   3 0
 s    9  1.00
  0.1471000000D+05  0.7210003276D-03
  0.2207000000D+04  0.5553002523D-02
  0.5028000000D+03  0.2826701284D-01
  0.1426000000D+03  0.1064440484D+00
  0.4647000000D+02  0.2868141303D+00
  0.1670000000D+02  0.4486412038D+00
  0.6356000000D+01  0.2647611203D+00
  0.1316000000D+01  0.1533300697D-01
  0.3897000000D+00 -0.2332001059D-02
 s    9  1.00
  0.1471000000D+05 -0.1650001117D-03
  0.2207000000D+04 -0.1308000885D-02
  0.5028000000D+03 -0.6495004395D-02
  0.1426000000D+03 -0.2669101806D-01
  0.4647000000D+02 -0.7369004987D-01
  0.1670000000D+02 -0.1707761156D+00
  0.6356000000D+01 -0.1123270760D+00
  0.1316000000D+01  0.5628143809D+00
  0.3897000000D+00  0.5687783849D+00
 s    9  1.00
  0.1471000000D+05  0.0000000000D+00
  0.2207000000D+04  0.0000000000D+00
  0.5028000000D+03  0.0000000000D+00
  0.1426000000D+03  0.0000000000D+00
  0.4647000000D+02  0.0000000000D+00
  0.1670000000D+02  0.0000000000D+00
  0.6356000000D+01  0.0000000000D+00
  0.1316000000D+01  0.0000000000D+00
  0.3897000000D+00  0.1000000000D+01
 s    1  1.00
  0.9863000000D-01  0.1000000000D+01
 p    4  1.00
  0.2267000000D+02  0.4487800121D-01
  0.4977000000D+01  0.2357180064D+00
  0.1347000000D+01  0.5085210137D+00
  0.3471000000D+00  0.4581200124D+00
 p    4  1.00
  0.2267000000D+02  0.0000000000D+00
  0.4977000000D+01  0.0000000000D+00
  0.1347000000D+01  0.0000000000D+00
  0.3471000000D+00  0.1000000000D+01
 p    1  1.00
  0.8502000000D-01  0.1000000000D+01
 d    1  1.00
  0.1640000000D+01  0.1000000000D+01
 d    1  1.00
  0.4640000000D+00  0.1000000000D+01
  
   4 0
 s    9  1.00
  0.1471000000D+05  0.7210003276D-03
  0.2207000000D+04  0.5553002523D-02
  0.5028000000D+03  0.2826701284D-01
  0.1426000000D+03  0.1064440484D+00
  0.4647000000D+02  0.2868141303D+00
  0.1670000000D+02  0.4486412038D+00
  0.6356000000D+01  0.2647611203D+00
  0.1316000000D+01  0.1533300697D-01
  0.3897000000D+00 -0.2332001059D-02
 s    9  1.00
  0.1471000000D+05 -0.1650001117D-03
  0.2207000000D+04 -0.1308000885D-02
  0.5028000000D+03 -0.6495004395D-02
  0.1426000000D+03 -0.2669101806D-01
  0.4647000000D+02 -0.7369004987D-01
  0.1670000000D+02 -0.1707761156D+00
  0.6356000000D+01 -0.1123270760D+00
  0.1316000000D+01  0.5628143809D+00
  0.3897000000D+00  0.5687783849D+00
 s    9  1.00
  0.1471000000D+05  0.0000000000D+00
  0.2207000000D+04  0.0000000000D+00
  0.5028000000D+03  0.0000000000D+00
  0.1426000000D+03  0.0000000000D+00
  0.4647000000D+02  0.0000000000D+00
  0.1670000000D+02  0.0000000000D+00
  0.6356000000D+01  0.0000000000D+00
  0.1316000000D+01  0.0000000000D+00
  0.3897000000D+00  0.1000000000D+01
 s    1  1.00
  0.9863000000D-01  0.1000000000D+01
 p    4  1.00
  0.2267000000D+02  0.4487800121D-01
  0.4977000000D+01  0.2357180064D+00
  0.1347000000D+01  0.5085210137D+00
  0.3471000000D+00  0.4581200124D+00
 p    4  1.00
  0.2267000000D+02  0.0000000000D+00
  0.4977000000D+01  0.0000000000D+00
  0.1347000000D+01  0.0000000000D+00
  0.3471000000D+00  0.1000000000D+01
 p    1  1.00
  0.8502000000D-01  0.1000000000D+01
 d    1  1.00
  0.1640000000D+01  0.1000000000D+01
 d    1  1.00
  0.4640000000D+00  0.1000000000D+01
  
   5 0
 s    9  1.00
  0.1471000000D+05  0.7210003276D-03
  0.2207000000D+04  0.5553002523D-02
  0.5028000000D+03  0.2826701284D-01
  0.1426000000D+03  0.1064440484D+00
  0.4647000000D+02  0.2868141303D+00
  0.1670000000D+02  0.4486412038D+00
  0.6356000000D+01  0.2647611203D+00
  0.1316000000D+01  0.1533300697D-01
  0.3897000000D+00 -0.2332001059D-02
 s    9  1.00
  0.1471000000D+05 -0.1650001117D-03
  0.2207000000D+04 -0.1308000885D-02
  0.5028000000D+03 -0.6495004395D-02
  0.1426000000D+03 -0.2669101806D-01
  0.4647000000D+02 -0.7369004987D-01
  0.1670000000D+02 -0.1707761156D+00
  0.6356000000D+01 -0.1123270760D+00
  0.1316000000D+01  0.5628143809D+00
  0.3897000000D+00  0.5687783849D+00
 s    9  1.00
  0.1471000000D+05  0.0000000000D+00
  0.2207000000D+04  0.0000000000D+00
  0.5028000000D+03  0.0000000000D+00
  0.1426000000D+03  0.0000000000D+00
  0.4647000000D+02  0.0000000000D+00
  0.1670000000D+02  0.0000000000D+00
  0.6356000000D+01  0.0000000000D+00
  0.1316000000D+01  0.0000000000D+00
  0.3897000000D+00  0.1000000000D+01
 s    1  1.00
  0.9863000000D-01  0.1000000000D+01
 p    4  1.00
  0.2267000000D+02  0.4487800121D-01
  0.4977000000D+01  0.2357180064D+00
  0.1347000000D+01  0.5085210137D+00
  0.3471000000D+00  0.4581200124D+00
 p    4  1.00
  0.2267000000D+02  0.0000000000D+00
  0.4977000000D+01  0.0000000000D+00
  0.1347000000D+01  0.0000000000D+00
  0.3471000000D+00  0.1000000000D+01
 p    1  1.00
  0.8502000000D-01  0.1000000000D+01
 d    1  1.00
  0.1640000000D+01  0.1000000000D+01
 d    1  1.00
  0.4640000000D+00  0.1000000000D+01
 
 
[MO]
 Sym=      1.1
 Ene=     -26.4969
 Spin= Alpha
 Occup=    2.000000
1 -0.000102374326064
2 -0.001166687573063
3 -0.004482203848049
4 -0.000451794259768
5 0.000474791988479
6 0.001508139343298
7 -0.000870729911814
8 0.002050571587987
9 0.003547050453902
10 -0.002047860626716
11 0.000033774997000
12 0.000138302314344
13 -0.000079849639672
14 0.000096911526728
15 -0.000172507637592
16 0.000075596110864
17 -0.000237829807161
18 0.000137311792856
19 0.000248088576357
20 0.000704985656840
21 -0.000883197397025
22 0.000178211740185
23 -0.001061799779236
24 0.000612996593628
25 0.001061366721028
26 -0.000025834273100
27 -0.001362527091867
28 0.000143783331509
29 -0.000143436666950
30 -0.000096334153651
31 0.000055619424589
32 0.000056626792961
33 0.000013795602592
34 -0.000007954259920
35 0.000147053906690
36 -0.000094961847000
37 0.000239503149992
38 -0.000658425034496
39 0.000132764717044
40 -0.000107732230148
41 0.000173459114999
42 -0.000016421989419
43 -0.000358653473557
44 0.000339310421819
45 0.000038636359325
46 0.000039559950090
47 -0.000138269922200
48 0.000004866409009
49 -0.000002710906010
50 -0.000002155502999
51 -0.000018891668875
52 -0.000007933670540
53 0.000002608024602
54 -0.000087459713374
55 -0.000021272106080
56 0.000108731819454
57 0.000064288636696
58 0.000046938699635
59 -0.000133906697199
60 0.000147085792254
61 -0.000094959480746
62 0.000239512962214
63 -0.000658447083790
64 0.000132754579775
65 -0.000204082502118
66 0.000006589504027
67 -0.000016404090458
68 -0.000473184873645
69 0.000140938590521
70 0.000038647925580
71 0.000139532990336
72 0.000034868499585
73 0.000004864080795
74 -0.000004245580148
75 -0.000000618500647
76 -0.000002575276920
77 0.000020328107329
78 0.000001581169688
79 -0.000087452808314
80 0.000176647338098
81 -0.000089194529784
82 -0.000008508463644
83 -0.000079151291523
84 -0.000001946891378
85 -1.00093428805114
86 -0.003865189447398
87 0.007735406073491
88 0.004411429811734
89 -0.001051467892719
90 -0.002375169522805
91 0.001371295535409
92 0.001268087989920
93 0.003089808599065
94 -0.001783891732259
95 0.000335608084416
96 0.001049616903510
97 -0.000605990127254
98 0.000069083034101
99 -0.000035317783748
100 -0.000033765250353
101 -0.000010304868360
102 0.000005952384857
103 0.000001551106758
104 -0.000190499327102
105 0.000274008154045
106 -0.000083508826942
107 0.000257679180103
108 -0.000148768859584
109 -0.000357517403488
 Sym=      2.1
 Ene=     -26.4271
 Spin= Alpha
 Occup=    2.000000
1 -0.000026798590888
2 -0.000172995034442
3 -0.001283887214901
4 -0.000136708187996
5 0.000108966187200
6 -0.000713332385648
7 -0.000980949703087
8 0.000565138420371
9 -0.003159556199799
10 -0.004296136222794
11 0.000009616654022
12 -0.000115644007744
13 -0.000156825877046
14 0.000023933151516
15 -0.000175481805385
16 0.000151548653869
17 0.000156935876650
18 0.000214437609995
19 -0.000138287603480
20 0.000189463701514
21 -0.001150297549518
22 0.000960833848003
23 0.000900169630513
24 0.001225898314065
25 -0.000896437727134
26 0.000029949918462
27 -0.000384074152205
28 0.000038211536104
29 -0.000042992408228
30 0.000088790481735
31 0.000120532133647
32 0.000015480561004
33 -0.000021620041803
34 -0.000030057617243
35 0.56162154798353
36 0.001966096448138
37 -0.004076762144550
38 -0.003058865991175
39 0.000362522640712
40 -0.000029264645858
41 0.000929709153812
42 -0.000709764099392
43 0.000293551213995
44 -0.001697041763622
45 -0.000158396070568
46 -0.000053637700266
47 -0.000830498899854
48 0.000000666493772
49 0.000017135942609
50 -0.000017802436381
51 0.000016295455304
52 -0.000029681537883
53 0.000001718849332
54 0.000040170798943
55 0.000134834524534
56 -0.000175005323476
57 -0.000049274591616
58 -0.000137759277972
59 0.000109760975735
60 -0.82848253762824
61 -0.002999355834696
62 0.006191197516443
63 0.004086342345102
64 -0.000523580127147
65 0.001201660244794
66 0.000669375091980
67 0.001042744910053
68 -0.002475446776537
69 -0.001194844650229
70 0.000259367970690
71 -0.000955344265905
72 -0.000593658319194
73 0.000001323617642
74 0.000013407514152
75 -0.000014731131794
76 -0.000037723449978
77 -0.000008510587045
78 0.000024352609692
79 -0.000116807748760
80 0.000251556193949
81 -0.000134748445189
82 -0.000186374228725
83 -0.000146169123633
84 0.000236507922474
85 -0.000063504611342
86 -0.000041259700928
87 0.000073884067581
88 -0.000169765285838
89 -0.000004659211021
90 -0.000050263311464
91 -0.000070236328484
92 -0.000001787209452
93 0.000327096346860
94 0.000372285466275
95 0.000010064776699
96 -0.000079794673414
97 -0.000058310099777
98 0.000000982403546
99 0.000000107018610
100 -0.000001089422157
101 0.000010609524580
102 0.000024238966816
103 0.000000777364048
104 -0.000023297143397
105 0.000157398586805
106 -0.000134101443408
107 -0.000031092350923
108 -0.000078289423119
109 0.000072861898461
 Sym=      3.1
 Ene=     -26.4271
 Spin= Alpha
 Occup=    2.000000
1 0.000139399345055
2 0.000900609803028
3 0.006687117805575
4 0.000711403430413
5 -0.000567581353592
6 0.000458459278218
7 -0.000531997025970
8 -0.002943846731319
9 0.002144836488683
10 -0.002413126643596
11 -0.000050184932140
12 0.000079510995036
13 -0.000088836362679
14 -0.000124788764433
15 -0.000028365097222
16 0.000153153861655
17 -0.000104150986267
18 0.000118716279371
19 0.000092145528774
20 -0.000987035528531
21 -0.000099488432535
22 0.001086523961066
23 -0.000606497711744
24 0.000685224459920
25 0.000608733282512
26 -0.000155750411469
27 0.002000695546486
28 -0.000198836715416
29 0.000223896520801
30 -0.000060741953336
31 0.000068043701187
32 -0.000080588249573
33 0.000013026494113
34 -0.000015647873929
35 0.82853450820949
36 0.003167610288842
37 -0.006492387285780
38 -0.003361078166006
39 0.000504495349233
40 0.000016357090486
41 0.001381904816770
42 -0.001035450986583
43 -0.000188361532279
44 -0.003145616608991
45 -0.000303033562691
46 0.000036074228150
47 -0.000952394785763
48 -0.000005241747226
49 0.000027141607962
50 -0.000021899860736
51 -0.000009849451087
52 -0.000025283342348
53 0.000000800611837
54 0.000214687177243
55 0.000243859837510
56 -0.000458547014753
57 0.000033427701654
58 -0.000287673120083
59 -0.000073086899027
60 0.56169827061004
61 0.002214580945762
62 -0.004521608752892
63 -0.001989840525112
64 0.000334428043388
65 -0.000800608981876
66 -0.000492285722994
67 -0.000699079405470
68 0.001844592908135
69 0.001392533214611
70 -0.000222862556214
71 0.000526614341524
72 0.000242431773693
73 -0.000005119336113
74 -0.000005672039421
75 0.000010791375533
76 0.000003223613380
77 0.000019394246589
78 -0.000016249777550
79 0.000184554743599
80 -0.000145316037126
81 -0.000039238706473
82 0.000211909272589
83 0.000065412640491
84 -0.000323143877831
85 0.000330696624839
86 0.000214904891514
87 -0.000384718157669
88 0.000884401766754
89 0.000024276775928
90 0.000029715520850
91 -0.000036213526798
92 0.000009386842249
93 -0.000391488178723
94 0.000333754016194
95 -0.000052376709133
96 0.000171481946170
97 -0.000119012992034
98 -0.000005133012996
99 0.000003450603745
100 0.000001682409251
101 0.000015752548325
102 -0.000003265517456
103 -0.000001394819490
104 0.000121392220779
105 -0.000081929564884
106 -0.000039462655895
107 -0.000063109362019
108 0.000017957490746
109 0.000112426373794
 Sym=      4.1
 Ene=     -11.5915
 Spin= Alpha
 Occup=    2.000000
1 1.00247154991049
2 0.011038949035749
3 -0.015324994937944
4 -0.003154326610616
5 -0.003135672308345
6 -0.000148430748549
7 0.000085968624876
8 -0.001320247076282
9 0.000010419260993
10 -0.000006104312281
11 -0.000903616435809
12 -0.000003525087071
13 0.000002062168157
14 -0.000550495825025
15 0.000292832987290
16 0.000257662837734
17 0.000033372573127
18 -0.000019329565042
19 -0.000035027620941
20 0.000002563415130
21 0.000001794618579
22 -0.000004358033709
23 -0.000007017957014
24 0.000004092367236
25 -0.000006213859271
26 0.001154193055795
27 0.006918639701099
28 0.001160795817294
29 -0.000301373787363
30 0.000001064150027
31 -0.000000601393485
32 -0.002580980406183
33 0.000012957057969
34 -0.000007500101162
35 0.000139446851936
36 0.001020184005758
37 -0.001204689567626
38 0.000807722661020
39 0.000370562673780
40 -0.000010507337527
41 0.000618416356862
42 -0.000420851469838
43 0.000000224654862
44 -0.001305155581962
45 0.000273498111229
46 -0.000004080150194
47 0.000280335374706
48 -0.000043018325336
49 -0.000109674367219
50 0.000152692692555
51 -0.000000560665336
52 0.000082800572908
53 -0.000000002709814
54 0.000264219438809
55 0.000517564541231
56 -0.000781783980040
57 0.000002945451677
58 -0.000432266620944
59 0.000000687085268
60 0.000139451706434
61 0.001020304293955
62 -0.001204932581928
63 0.000807732511499
64 0.000370583010534
65 -0.000540854910706
66 -0.000300123092277
67 -0.000420933788023
68 0.001130623048482
69 0.000652508196121
70 0.000273503797171
71 -0.000244830469038
72 -0.000136655190516
73 -0.000043034531155
74 0.000087126405640
75 -0.000044091874485
76 -0.000072011402709
77 -0.000040926833883
78 0.000131213395153
79 0.000264262453903
80 -0.000457516603401
81 0.000193254149498
82 0.000375874770012
83 0.000213609722397
84 -0.000649404291579
85 0.000160751361309
86 0.001102176712841
87 -0.001369586993657
88 0.000678322208278
89 -0.000041922787522
90 0.000564271028585
91 -0.000325799952432
92 -0.000474634003647
93 -0.001241084806873
94 0.000716542242873
95 0.000242475432741
96 0.000216872130963
97 -0.000125226059048
98 -0.000042155829700
99 0.000084763611138
100 -0.000042607781437
101 0.000060950535486
102 -0.000035188327773
103 -0.000127372524350
104 0.000280389723756
105 -0.000485249360705
106 0.000204859636949
107 -0.000422571106451
108 0.000243970493748
109 0.000690114858460
 Sym=      5.1
 Ene=      -1.7865
 Spin= Alpha
 Occup=    2.000000
1 -0.007611828635521
2 0.31815352384602
3 -0.31211383535138
4 -0.047165845453754
5 -0.069111914161733
6 0.10363169627290
7 -0.059788256185059
8 0.076602434996006
9 -0.057472131569514
10 0.033153165746194
11 0.000740646565203
12 -0.000173736929363
13 0.000100428646762
14 -0.012613209042669
15 -0.000438731962548
16 0.013051941005217
17 -0.010212742032457
18 0.005890955467551
19 0.013502378321935
20 0.014490365333971
21 -0.003788769947224
22 -0.010701595386746
23 0.008297355237504
24 -0.004786108216262
25 -0.006920155539310
26 0.058018880093606
27 -0.039645295908547
28 0.011761647853877
29 -0.011620290754965
30 0.001775845478294
31 -0.001024498251002
32 -0.005415895877184
33 -0.003190680695393
34 0.001840483503001
35 -0.006971295730100
36 0.58565331769711
37 0.023756888743087
38 0.064059160048445
39 0.027175688354085
40 -0.001175904368282
41 0.094028953378028
42 0.005168174490759
43 -0.000465994711704
44 0.019173546252963
45 0.003645496426951
46 -0.003214092076027
47 0.011876515505155
48 -0.002524980213184
49 -0.003189670553554
50 0.005714650766737
51 0.000124793778115
52 0.003458321723359
53 0.000750774002908
54 -0.003151076324754
55 -0.004972301651851
56 0.008123377976605
57 0.000670952562551
58 0.004381158914648
59 0.000357342232090
60 -0.006972434082902
61 0.58584574044658
62 0.023754760417980
63 0.064079412406433
64 0.027185415980577
65 -0.082041653889870
66 -0.046004942030812
67 0.005166725607771
68 -0.016834875676783
69 -0.009181078196287
70 0.003645797841431
71 -0.011896256496315
72 -0.003157889044976
73 -0.002525578692887
74 0.002926678765170
75 -0.000401100072283
76 -0.002933764702782
77 -0.001837848488257
78 0.004828797701024
79 -0.003150676566047
80 0.004581279627579
81 -0.001430603061531
82 -0.003458567454458
83 -0.002771443752737
84 0.006725747152332
85 -0.003327810991290
86 0.23498705721855
87 0.023810288385106
88 0.024702372345504
89 -0.012454248169804
90 -0.038923906525201
91 0.022473701976208
92 0.006890953707841
93 0.019304508995046
94 -0.011145172180797
95 0.003677955507961
96 -0.000971320387273
97 0.000559455482637
98 -0.001307083713449
99 0.001332759371000
100 -0.000025675657551
101 0.000448651479407
102 -0.000258974049521
103 -0.001357886867096
104 -0.002057816152702
105 0.003210368189977
106 -0.001152552037276
107 0.002019602077732
108 -0.001165803209127
109 -0.004362372906986
 Sym=      6.1
 Ene=      -1.7104
 Spin= Alpha
 Occup=    2.000000
1 -0.000000920137988
2 0.000033460880406
3 -0.000036734092232
4 -0.000006239508441
5 -0.000004673071681
6 -0.10209163269637
7 -0.17684936941946
8 0.000008311635411
9 0.071897604986334
10 0.12453751748177
11 0.000000234180610
12 0.000865207442892
13 0.001498736581737
14 -0.000001115411843
15 -0.021787630772934
16 0.021788746184776
17 0.011331870872671
18 0.019628599165092
19 -0.014524291573384
20 0.000002048890411
21 0.015553303238602
22 -0.015555352129013
23 -0.011538450102967
24 -0.019985500821628
25 0.010369231994521
26 0.000007956558600
27 -0.000005081036736
28 0.000001473454361
29 -0.000001485683128
30 -0.002031390225468
31 -0.003518863089720
32 -0.000000881982341
33 0.003328486515906
34 0.005765275628123
35 -0.004290371693870
36 0.66612432896965
37 0.007235808264938
38 0.067522237432449
39 0.024698504656061
40 -0.010249509024144
41 0.055501156726756
42 0.001476762938317
43 -0.001220202699934
44 0.005413732049576
45 0.001253021003048
46 0.002695048091285
47 0.015825660809956
48 -0.001215524014924
49 -0.002382623396867
50 0.003598147411791
51 -0.000152997179878
52 0.002912895298205
53 -0.000828050924745
54 -0.000794826270382
55 -0.001521276058858
56 0.002316102329240
57 -0.000406105022405
58 0.002232635614013
59 -0.001325568098342
60 0.004288566476234
61 -0.66596399204431
62 -0.007226249320067
63 -0.067506911704437
64 -0.024694052872498
65 0.053170205008341
66 0.018864306831901
67 -0.001473892340985
68 0.005290182734344
69 0.001645859257613
70 -0.001252106907913
71 0.012355035309093
72 0.010246030924269
73 0.001215042221496
74 -0.002723609157762
75 0.001508566936266
76 0.002598775355095
77 0.001323675968849
78 -0.002575488345510
79 0.000793545339667
80 -0.002349011948083
81 0.001555466608416
82 0.002135217413815
83 0.000763536029263
84 -0.001253418420114
85 -0.000000500250398
86 0.000073840520118
87 0.000003781481124
88 0.000006929488595
89 -0.000003340428219
90 -0.004299238967017
91 -0.007415104774329
92 0.000001137113117
93 -0.001131933518218
94 -0.001968498733146
95 0.000000504947413
96 0.002885533878828
97 0.004997055101620
98 -0.000000152275314
99 -0.001175647635299
100 0.001175799910613
101 -0.000140476853698
102 -0.000243479579212
103 -0.000784034734195
104 -0.000000258206522
105 -0.001659978975681
106 0.001660237182203
107 -0.000436781647924
108 -0.000757189778414
109 -0.001107396168329
 Sym=      7.1
 Ene=      -1.6547
 Spin= Alpha
 Occup=    2.000000
1 0.003513723334052
2 0.029395295888655
3 0.027465711786235
4 0.000569037356266
5 -0.009029003035586
6 0.021309081040796
7 -0.012309723714005
8 -0.010086975775534
9 -0.065878078691641
10 0.038040031080110
11 -0.000586663728813
12 -0.002520628999173
13 0.001455497911446
14 0.001190878943011
15 -0.004224535766601
16 0.003033656823590
17 -0.005692855588664
18 0.003287407077522
19 0.007256571323101
20 -0.004361941727272
21 0.009444349383964
22 -0.005082407656692
23 0.015006485366068
24 -0.008664531813345
25 -0.014524895892813
26 0.004530042247800
27 0.002596164278189
28 0.000350129584795
29 0.000269784305868
30 0.001172548894343
31 -0.000677126842400
32 0.001382605692285
33 -0.002058956618202
34 0.001188737738749
35 -0.000856879166915
36 0.18844488668983
37 0.001851002928213
38 0.024536656018335
39 -0.005982614852848
40 0.030517993653352
41 -0.016761822309105
42 0.001286143322121
43 0.004319420551688
44 -0.000025331164324
45 0.000573512147389
46 0.000539671819393
47 0.003432901088447
48 -0.000340537963513
49 -0.000365566209968
50 0.000706104173481
51 0.000176810228410
52 0.000362220239949
53 0.000347528363886
54 0.000543682584259
55 -0.000328296564324
56 -0.000215386019935
57 -0.000285511321627
58 0.000038586963635
59 0.002192852876155
60 -0.000856579606080
61 0.18838901652168
62 0.001849712775888
63 0.024531914545983
64 -0.005982732307137
65 0.029778439713811
66 -0.018050502786484
67 0.001285668527843
68 0.002182844778142
69 -0.003727598783236
70 0.000573387114809
71 -0.002702429017373
72 -0.002183225121539
73 -0.000340461359512
74 0.000177339970334
75 0.000163121389178
76 -0.000225157724765
77 -0.000334190743950
78 0.000709509937957
79 0.000543759381752
80 -0.001888479820086
81 0.001344720438334
82 -0.000175918484528
83 0.000228041974588
84 0.001152667813296
85 0.001450681222557
86 -0.93446651235747
87 -0.021720647955924
88 -0.082367129462969
89 0.042958653031775
90 0.18117682190578
91 -0.10459995384654
92 -0.008549072454440
93 -0.023269982494704
94 0.013434632492481
95 -0.003113746428095
96 -0.009895978595854
97 0.005713581701526
98 0.000086681945209
99 -0.000092104963032
100 0.000005423017822
101 -0.000341020516662
102 0.000196891122195
103 0.000097421469826
104 -0.000109103331069
105 0.000374875241753
106 -0.000265771910685
107 -0.000722209230670
108 0.000416993023453
109 -0.000640750055474
 Sym=      8.1
 Ene=      -1.0210
 Spin= Alpha
 Occup=    2.000000
1 0.006279298871191
2 0.66076718316888
3 -0.34599252397186
4 -0.044385683269222
5 0.022798379675665
6 0.18735297050763
7 -0.10814293759246
8 -0.022409594301313
9 -0.070140598991048
10 0.040486357882568
11 0.000754150860336
12 0.001334643826071
13 -0.000770194668454
14 -0.008396142775063
15 -0.004009443615153
16 0.012405586390216
17 -0.012084778312731
18 0.006974742309784
19 0.016421157154657
20 -0.004079668669765
21 0.004026239755021
22 0.000053428914744
23 0.005634481233115
24 -0.003253028141647
25 -0.003974086135570
26 0.25105493636864
27 -0.057494205571413
28 0.012806704593999
29 -0.022849205534486
30 0.002976117748362
31 -0.001717990640406
32 -0.021770098819678
33 -0.001759199089902
34 0.001015860954817
35 -0.005753685096094
36 -0.28268571503835
37 -0.018893609008506
38 -0.005168667795835
39 0.21932673178266
40 0.037843617790365
41 0.40612850368829
42 -0.002837091625432
43 -0.002589362694064
44 -0.014069512163193
45 0.000869858134309
46 -0.003703026639427
47 0.004998098233792
48 -0.003322166656652
49 -0.005676177733792
50 0.008998344390444
51 0.000417713171490
52 0.007475682041456
53 0.001710333083104
54 -0.001092518001306
55 -0.009379872344538
56 0.010472390345844
57 0.001903960753498
58 0.011202394207182
59 0.001488796623615
60 -0.005753667792614
61 -0.28271083295958
62 -0.018904151698327
63 -0.005174532203829
64 0.21935669125768
65 -0.33283982950340
66 -0.23586165883938
67 -0.002840920355940
68 0.010898248201815
69 0.009281761599380
70 0.000869533631874
71 -0.006179403405244
72 0.000708345008459
73 -0.003322501371163
74 0.004047680053266
75 -0.000725178682103
76 -0.006266336174518
77 -0.004100193616405
78 0.008193447087499
79 -0.001091997436821
80 0.004392042417014
81 -0.003300044980193
82 -0.008749400931200
83 -0.007249821637111
84 0.010669865472420
85 -0.003653589493185
86 -0.11122335393755
87 0.008329671193875
88 0.004108931793734
89 -0.002463530696636
90 0.036819893237373
91 -0.021257406860409
92 0.004381219079455
93 0.005850607495506
94 -0.003378291884513
95 -0.001876535989166
96 -0.006489758570534
97 0.003746338132661
98 -0.001614558473400
99 0.001891477962579
100 -0.000276919489179
101 0.001259915466839
102 -0.000727376815021
103 -0.002168161749700
104 -0.000487783608483
105 0.003802978695745
106 -0.003315195087262
107 0.003993290777379
108 -0.002305209718952
109 -0.007118131949889
 Sym=      9.1
 Ene=      -0.8671
 Spin= Alpha
 Occup=    2.000000
1 -0.001286747673764
2 0.041212611533926
3 -0.065394782313741
4 0.002779964786731
5 0.35835943416137
6 -0.049378112076116
7 0.026985512266383
8 -0.21659893618909
9 0.014011181796608
10 -0.007527194136999
11 0.001114550309608
12 -0.003114986174748
13 0.001784925574258
14 -0.010645332192532
15 0.002208201121888
16 0.008437131070644
17 0.019404261573861
18 -0.011091085882935
19 0.006024950492059
20 -0.013820890079110
21 0.008245137220522
22 0.005575752858588
23 -0.015423906855000
24 0.008851756958684
25 -0.002626589278943
26 0.23313670284107
27 0.036309972539844
28 -0.002334808620952
29 -0.012926643869391
30 -0.001129559008795
31 0.000627547328004
32 -0.051823864159930
33 0.016738273668256
34 -0.009637894057771
35 0.001102140979544
36 0.051367996752533
37 0.001739986639674
38 -0.021958859628199
39 0.48692683268193
40 -0.11596371465200
41 -0.32114304626543
42 0.007451032546080
43 0.001197835403800
44 0.004848412362559
45 0.011526386816379
46 -0.003010709978397
47 -0.019821392094383
48 0.005719040426896
49 0.001714589380336
50 -0.007433629807231
51 -0.000463071276668
52 0.004363616113858
53 -0.002056775701384
54 0.011103556862664
55 0.000411943640632
56 -0.011515500503296
57 0.000189578379004
58 0.015560331672876
59 -0.001221747065137
60 0.001121589952054
61 0.052234883613435
62 0.001919872582565
63 -0.021916443859196
64 0.48570960894979
65 0.22285708018649
66 0.26132806028191
67 0.007503092177224
68 -0.003717602549786
69 -0.003526133813102
70 0.011521374134693
71 0.015747284385255
72 0.012555041033201
73 0.005732977613994
74 -0.003643065715275
75 -0.002089911898719
76 -0.003974177853984
77 -0.001766669804832
78 -0.005629839718932
79 0.011111632686132
80 -0.007660011461684
81 -0.003451621224448
82 -0.013334883341830
83 -0.007943879644827
84 -0.006579441613417
85 0.000456504600158
86 0.014530619002040
87 -0.003867210642600
88 -0.009685235966364
89 -0.003689903706373
90 -0.003303842299538
91 0.001855847307869
92 -0.003595666195500
93 0.002117277187412
94 -0.001198719451182
95 -0.014340077779990
96 0.001928657889077
97 -0.001072378899349
98 0.001894659340064
99 -0.001742231230795
100 -0.000152428109270
101 0.001460720006850
102 -0.000845938072987
103 0.001566147306043
104 0.001621125152415
105 -0.001090265475007
106 -0.000530859677408
107 0.004926460221421
108 -0.002855293501673
109 0.000551578710027
 Sym=     10.1
 Ene=      -0.8667
 Spin= Alpha
 Occup=    2.000000
1 0.000002882170138
2 -0.000084575778741
3 0.000159160256920
4 -0.000009900855568
5 -0.000902812171050
6 -0.25565403677301
7 -0.44312620404020
8 0.000548077817132
9 0.094973529265705
10 0.16459803450329
11 -0.000002638420530
12 -0.002153033863207
13 -0.003747406860999
14 0.000028582682843
15 -0.029705672999838
16 0.029677090316995
17 0.018039571073930
18 0.031362124880941
19 -0.019819533442743
20 0.000034867732319
21 0.006451273939365
22 -0.006486141671683
23 -0.008438652401472
24 -0.014713687161400
25 0.004322096595463
26 -0.000575038336629
27 -0.000098412234053
28 0.000006951674713
29 0.000031542214674
30 -0.004107553824266
31 -0.007122191555329
32 0.000131211024376
33 0.003637853689563
34 0.006402566410962
35 -0.003808870959008
36 -0.16844180614783
37 -0.034195600076004
38 -0.008132992283077
39 0.24929276992785
40 -0.21048464166977
41 0.48066622827089
42 -0.009770465523148
43 0.000497875162739
44 -0.025540137285547
45 0.001444771169945
46 -0.002246616901707
47 0.017814541448592
48 -0.002521991425796
49 -0.005699402189257