[Molden Format]
[Atoms] Angs
H     1    1         0.0000000000        0.0000000000        1.4000000000
H     2    1         0.0000000000        0.0000000000        0.0000000000
[GTO]
   1 0
 s    4  1.00
  0.1301000000D+02  0.1968498999D-01
  0.1962000000D+01  0.1379769298D+00
  0.4446000000D+00  0.4781477569D+00
  0.1220000000D+00  0.5012397451D+00
 s    4  1.00
  0.1301000000D+02  0.0000000000D+00
  0.1962000000D+01  0.0000000000D+00
  0.4446000000D+00  0.0000000000D+00
  0.1220000000D+00  0.1000000000D+01
 s    1  1.00
  0.2974000000D-01  0.1000000000D+01
 p    1  1.00
  0.7270000000D+00  0.1000000000D+01
 p    1  1.00
  0.1410000000D+00  0.1000000000D+01
  
   2 0
 s    4  1.00
  0.1301000000D+02  0.1968498999D-01
  0.1962000000D+01  0.1379769298D+00
  0.4446000000D+00  0.4781477569D+00
  0.1220000000D+00  0.5012397451D+00
 s    4  1.00
  0.1301000000D+02  0.0000000000D+00
  0.1962000000D+01  0.0000000000D+00
  0.4446000000D+00  0.0000000000D+00
  0.1220000000D+00  0.1000000000D+01
 s    1  1.00
  0.2974000000D-01  0.1000000000D+01
 p    1  1.00
  0.7270000000D+00  0.1000000000D+01
 p    1  1.00
  0.1410000000D+00  0.1000000000D+01


[MO]
 Sym=      1.1
 Ene=      -0.4116
 Spin= Alpha
 Occup=    1.462677
1 0.59412756370866
2 -0.038399726523239
3 0.015527974586523
4 0.0
5 0.0
6 -0.031278781988183
7 0.0
8 0.0
9 -0.046115528250929
10 0.59412756655782
11 -0.038399726783082
12 0.015527977441169
13 0.0
14 0.0
15 0.031278782116764
16 0.0
17 0.0
18 0.046115528074187
 Sym=      2.1
 Ene=      -0.0413
 Spin= Alpha
 Occup=    0.523647
1 0.39371417264234
2 0.19996179196116
3 0.81722173228482
4 0.0
5 0.0
6 0.020665297077779
7 0.0
8 0.0
9 0.14747265338574
10 -0.39371416555698
11 -0.19996179481793
12 -0.81722173535629
13 0.0
14 0.0
15 0.020665297343665
16 0.0
17 0.0
18 0.14747265324182
 Sym=      3.1
 Ene=       0.4573
 Spin= Alpha
 Occup=    0.013676
1 -0.23136983791315
2 0.43825797866550
3 0.10399742251378
4 0.0
5 0.0
6 0.26672031892470
7 0.0
8 0.0
9 0.45681968185475
10 -0.23136990112267
11 0.43825800110396
12 0.10399749232437
13 0.0
14 0.0
15 -0.26672031902654
16 0.0
17 0.0
18 -0.45681969295322
 Sym=      4.1
 Ene=       0.1118
 Spin= Alpha
 Occup=   -0.000000
1 -0.30525781077221
2 -0.43444398683697
3 2.56860596138731
4 0.0
5 0.0
6 0.002369111448035
7 0.0
8 0.0
9 -0.16930697057477
10 0.30525779886589
11 0.43444387903246
12 -2.56860581505196
13 0.0
14 0.0
15 0.002369112258303
16 0.0
17 0.0
18 -0.16930692883124
 Sym=      5.1
 Ene=       0.1455
 Spin= Alpha
 Occup=   -0.000000
1 0.016372482321452
2 0.70769927278840
3 -0.78313502252027
4 0.0
5 0.0
6 0.011445230751490
7 0.0
8 0.0
9 0.39775101272686
10 0.016372528466906
11 0.70769935064682
12 -0.78313549423638
13 0.0
14 0.0
15 -0.011445229944304
16 0.0
17 0.0
18 -0.39775105547842
 Sym=      6.1
 Ene=       0.2386
 Spin= Alpha
 Occup=   -0.000000
1 0.0
2 0.0
3 0.0
4 0.0
5 -0.009410139366119
6 0.0
7 0.0
8 0.56107560565781
9 0.0
10 0.0
11 0.0
12 0.0
13 0.0
14 -0.009410139373621
15 0.0
16 0.0
17 0.56107560290956
18 0.0
 Sym=      7.1
 Ene=       0.2386
 Spin= Alpha
 Occup=   -0.000000
1 0.0
2 0.0
3 0.0
4 -0.009410139366119
5 0.0
6 0.0
7 0.56107560565781
8 0.0
9 0.0
10 0.0
11 0.0
12 0.0
13 -0.009410139373621
14 0.0
15 0.0
16 0.56107560290956
17 0.0
18 0.0
 Sym=      8.1
 Ene=       0.3962
 Spin= Alpha
 Occup=   -0.000000
1 0.0
2 0.0
3 0.0
4 0.0
5 -0.027908640820058
6 0.0
7 0.0
8 1.15120999185977
9 0.0
10 0.0
11 0.0
12 0.0
13 0.0
14 0.027908640904079
15 0.0
16 0.0
17 -1.15120999324726
18 0.0
 Sym=      9.1
 Ene=       0.3962
 Spin= Alpha
 Occup=   -0.000000
1 0.0
2 0.0
3 0.0
4 -0.027908640820058
5 0.0
6 0.0
7 1.15120999185977
8 0.0
9 0.0
10 0.0
11 0.0
12 0.0
13 0.027908640904079
14 0.0
15 0.0
16 -1.15120999324726
17 0.0
18 0.0
 Sym=     10.1
 Ene=       0.5481
 Spin= Alpha
 Occup=   -0.000000
1 -0.50144568974091
2 -4.59459640736957
3 -0.87526492755538
4 0.0
5 0.0
6 -0.044786463008876
7 0.0
8 0.0
9 3.31581269343468
10 0.50144569013415
11 4.59459641789144
12 0.87526492541337
13 0.0
14 0.0
15 -0.044786460572095
16 0.0
17 0.0
18 3.31581267171746
 Sym=     11.1
 Ene=       0.7708
 Spin= Alpha
 Occup=   -0.000000
1 -1.67275165766948
2 1.72676494523250
3 -0.30726904441629
4 0.0
5 0.0
6 0.10325559707373
7 0.0
8 0.0
9 -0.36873172829805
10 -1.67275169277050
11 1.72676510587061
12 -0.30726906891460
13 0.0
14 0.0
15 -0.10325559644917
16 0.0
17 0.0
18 0.36873179458745
 Sym=     12.1
 Ene=       0.8123
 Spin= Alpha
 Occup=   -0.000000
1 -1.68637263917150
2 5.85088378508541
3 -0.78718131966065
4 0.0
5 0.0
6 -0.042796149259687
7 0.0
8 0.0
9 -2.08862500961519
10 1.68637258867973
11 -5.85088372119595
12 0.78718130966739
13 0.0
14 0.0
15 -0.042796145604727
16 0.0
17 0.0
18 -2.08862502610840
 Sym=     13.1
 Ene=       1.3461
 Spin= Alpha
 Occup=   -0.000000
1 0.38964259191963
2 -0.63490731024653
3 0.095696686590236
4 0.0
5 0.0
6 0.67491327873792
7 0.0
8 0.0
9 -0.70014945700178
10 0.38964263250347
11 -0.63490735853717
12 0.095696675195521
13 0.0
14 0.0
15 -0.67491328012414
16 0.0
17 0.0
18 0.70014945334286
 Sym=     14.1
 Ene=       1.6633
 Spin= Alpha
 Occup=   -0.000000
1 0.0
2 0.0
3 0.0
4 0.0
5 0.79141610476474
6 0.0
7 0.0
8 -0.32357564113755
9 0.0
10 0.0
11 0.0
12 0.0
13 0.0
14 0.79141610073578
15 0.0
16 0.0
17 -0.32357563851995
18 0.0
 Sym=     15.1
 Ene=       1.6633
 Spin= Alpha
 Occup=   -0.000000
1 0.0
2 0.0
3 0.0
4 0.79141610476474
5 0.0
6 0.0
7 -0.32357564113755
8 0.0
9 0.0
10 0.0
11 0.0
12 0.0
13 0.79141610073578
14 0.0
15 0.0
16 -0.32357563851995
17 0.0
18 0.0
 Sym=     16.1
 Ene=       1.8403
 Spin= Alpha
 Occup=   -0.000000
1 0.0
2 0.0
3 0.0
4 0.0
5 0.81930928349788
6 0.0
7 0.0
8 -0.51448131361705
9 0.0
10 0.0
11 0.0
12 0.0
13 0.0
14 -0.81930928738674
15 0.0
16 0.0
17 0.51448131515584
18 0.0
 Sym=     17.1
 Ene=       1.8403
 Spin= Alpha
 Occup=   -0.000000
1 0.0
2 0.0
3 0.0
4 0.81930928349788
5 0.0
6 0.0
7 -0.51448131361705
8 0.0
9 0.0
10 0.0
11 0.0
12 0.0
13 -0.81930928738674
14 0.0
15 0.0
16 0.51448131515584
17 0.0
18 0.0
 Sym=     18.1
 Ene=       2.2695
 Spin= Alpha
 Occup=   -0.000000
1 -0.27478676017614
2 1.15908854300366
3 0.30199674056578
4 0.0
5 0.0
6 0.95734211548069
7 0.0
8 0.0
9 -0.87945185598961
10 0.27478675935120
11 -1.15908854191771
12 -0.30199674040024
13 0.0
14 0.0
15 0.95734211481751
16 0.0
17 0.0
18 -0.87945185678926
