[Molden Format]
[Atoms] Angs
H     1    1         0.7000000000        0.0000000000        0.0000000000
H     2    1         0.0000000000        0.0000000000        0.0000000000
[GTO]
   1 0
 s    4  1.00
  0.1301000000D+02  0.1968498999D-01
  0.1962000000D+01  0.1379769298D+00
  0.4446000000D+00  0.4781477569D+00
  0.1220000000D+00  0.5012397451D+00
 s    4  1.00
  0.1301000000D+02  0.0000000000D+00
  0.1962000000D+01  0.0000000000D+00
  0.4446000000D+00  0.0000000000D+00
  0.1220000000D+00  0.1000000000D+01
 s    1  1.00
  0.2974000000D-01  0.1000000000D+01
 p    1  1.00
  0.7270000000D+00  0.1000000000D+01
 p    1  1.00
  0.1410000000D+00  0.1000000000D+01
  
   2 0
 s    4  1.00
  0.1301000000D+02  0.1968498999D-01
  0.1962000000D+01  0.1379769298D+00
  0.4446000000D+00  0.4781477569D+00
  0.1220000000D+00  0.5012397451D+00
 s    4  1.00
  0.1301000000D+02  0.0000000000D+00
  0.1962000000D+01  0.0000000000D+00
  0.4446000000D+00  0.0000000000D+00
  0.1220000000D+00  0.1000000000D+01
 s    1  1.00
  0.2974000000D-01  0.1000000000D+01
 p    1  1.00
  0.7270000000D+00  0.1000000000D+01
 p    1  1.00
  0.1410000000D+00  0.1000000000D+01


[MO]
 Sym=      1.1
 Ene=      -0.6313
 Spin= Alpha
 Occup=    1.475505
1 0.75775336517952
2 -0.26135346010230
3 0.005300169775447
4 -0.031953030334423
5 0.0
6 0.0
7 0.000231141404594
8 0.0
9 0.0
10 0.75775336944034
11 -0.26135342621640
12 0.005300238811118
13 0.031953029702850
14 0.0
15 0.0
16 -0.000231138029242
17 0.0
18 0.0
 Sym=      2.1
 Ene=       0.0209
 Spin= Alpha
 Occup=    0.501856
1 0.12717667882171
2 1.42403809475290
3 3.05132352694613
4 0.015336166951059
5 0.0
6 0.0
7 -0.15732888106268
8 0.0
9 0.0
10 -0.12717672361612
11 -1.42403812903131
12 -3.05132334365613
13 0.015336169974176
14 0.0
15 0.0
16 -0.15732888381276
17 0.0
18 0.0
 Sym=      3.1
 Ene=       0.4733
 Spin= Alpha
 Occup=    0.014400
1 -0.81263208539537
2 1.04430212132081
3 0.001568104794312
4 0.21928683612562
5 0.0
6 0.0
7 0.084381298542620
8 0.0
9 0.0
10 -0.81263187933411
11 1.04430209565056
12 0.001568406425997
13 -0.21928684961603
14 0.0
15 0.0
16 -0.084381311274134
17 0.0
18 0.0
 Sym=      4.1
 Ene=       0.6377
 Spin= Alpha
 Occup=    0.008240
1 1.82143269006813
2 -1.07592275416048
3 -1.52174935442953
4 0.051138283165125
5 0.0
6 0.0
7 -0.003972136627099
8 0.0
9 0.0
10 -1.82143292977652
11 1.07592305222173
12 1.52174926044910
13 0.051138272537006
14 0.0
15 0.0
16 -0.003972032714529
17 0.0
18 0.0
 Sym=      5.1
 Ene=       0.1486
 Spin= Alpha
 Occup=   -0.000000
1 -0.31228171690545
2 0.95341385963352
3 -0.80571016960333
4 0.007024868700613
5 0.0
6 0.0
7 0.44881989516256
8 0.0
9 0.0
10 -0.31228173096086
11 0.95341638617060
12 -0.80571213621626
13 -0.007024872486388
14 0.0
15 0.0
16 -0.44881937752255
17 0.0
18 0.0
 Sym=      6.1
 Ene=       0.2239
 Spin= Alpha
 Occup=   -0.000000
1 0.0
2 0.0
3 0.0
4 0.0
5 0.0
6 0.003260754308930
7 0.0
8 0.0
9 0.51369728271415
10 0.0
11 0.0
12 0.0
13 0.0
14 0.0
15 0.003260753390853
16 0.0
17 0.0
18 0.51369733947392
 Sym=      7.1
 Ene=       0.2239
 Spin= Alpha
 Occup=   -0.000000
1 0.0
2 0.0
3 0.0
4 0.0
5 0.003260754308930
6 0.0
7 0.0
8 0.51369728271415
9 0.0
10 0.0
11 0.0
12 0.0
13 0.0
14 0.003260753390853
15 0.0
16 0.0
17 0.51369733947393
18 0.0
 Sym=      8.1
 Ene=       0.3178
 Spin= Alpha
 Occup=   -0.000000
1 -0.30738921023440
2 25.4261285663838
3 -5.61495891357051
4 0.024194141843388
5 0.0
6 0.0
7 -5.58986960673883
8 0.0
9 0.0
10 0.30738923726416
11 -25.4261284226226
12 5.61495875396955
13 0.024194140623107
14 0.0
15 0.0
16 -5.58986986790685
17 0.0
18 0.0
 Sym=      9.1
 Ene=       0.4145
 Spin= Alpha
 Occup=   -0.000000
1 0.0
2 0.0
3 0.0
4 0.0
5 -0.035453680640426
6 0.0
7 0.0
8 2.10123075828891
9 0.0
10 0.0
11 0.0
12 0.0
13 0.0
14 0.035453681499556
15 0.0
16 0.0
17 -2.10123074475567
18 0.0
 Sym=     10.1
 Ene=       0.4145
 Spin= Alpha
 Occup=   -0.000000
1 0.0
2 0.0
3 0.0
4 0.0
5 0.0
6 -0.035453680640426
7 0.0
8 0.0
9 2.10123075828891
10 0.0
11 0.0
12 0.0
13 0.0
14 0.0
15 0.035453681499556
16 0.0
17 0.0
18 -2.10123074475566
 Sym=     11.1
 Ene=       0.5216
 Spin= Alpha
 Occup=   -0.000000
1 -0.80135885342708
2 0.41146513846786
3 -0.008607283067440
4 0.028861971947969
5 0.0
6 0.0
7 -1.59198563298371
8 0.0
9 0.0
10 -0.80135877473506
11 0.41145931742768
12 -0.008606920952147
13 -0.028861961442145
14 0.0
15 0.0
16 1.59198425157562
17 0.0
18 0.0
 Sym=     12.1
 Ene=       0.9578
 Spin= Alpha
 Occup=   -0.000000
1 -0.97012867279101
2 -33.1644947224670
3 0.76939763336853
4 -0.44715239523049
5 0.0
6 0.0
7 8.74685913906399
8 0.0
9 0.0
10 0.97012858130158
11 33.1644948225452
12 -0.76939768700501
13 -0.44715240458479
14 0.0
15 0.0
16 8.74685925537361
17 0.0
18 0.0
 Sym=     13.1
 Ene=       1.4610
 Spin= Alpha
 Occup=   -0.000000
1 0.0
2 0.0
3 0.0
4 0.0
5 0.0
6 0.65993622665989
7 0.0
8 0.0
9 -0.29945428341213
10 0.0
11 0.0
12 0.0
13 0.0
14 0.0
15 0.65993623094452
16 0.0
17 0.0
18 -0.29945428395212
 Sym=     14.1
 Ene=       1.4610
 Spin= Alpha
 Occup=   -0.000000
1 0.0
2 0.0
3 0.0
4 0.0
5 0.65993622665989
6 0.0
7 0.0
8 -0.29945428341213
9 0.0
10 0.0
11 0.0
12 0.0
13 0.0
14 0.65993623094452
15 0.0
16 0.0
17 -0.29945428395212
18 0.0
 Sym=     15.1
 Ene=       1.8589
 Spin= Alpha
 Occup=   -0.000000
1 1.00742769254272
2 -1.12194172965350
3 0.16548349173017
4 0.75818105737371
5 0.0
6 0.0
7 -0.46634310689998
8 0.0
9 0.0
10 1.00742764311167
11 -1.12194191221259
12 0.16548337883076
13 -0.75818104890897
14 0.0
15 0.0
16 0.46634305891377
17 0.0
18 0.0
 Sym=     16.1
 Ene=       2.1283
 Spin= Alpha
 Occup=   -0.000000
1 0.0
2 0.0
3 0.0
4 0.0
5 0.0
6 1.11053354730247
7 0.0
8 0.0
9 -0.76880738036615
10 0.0
11 0.0
12 0.0
13 0.0
14 0.0
15 -1.11053354473159
16 0.0
17 0.0
18 0.76880737921818
 Sym=     17.1
 Ene=       2.1283
 Spin= Alpha
 Occup=   -0.000000
1 0.0
2 0.0
3 0.0
4 0.0
5 1.11053354730247
6 0.0
7 0.0
8 -0.76880738036615
9 0.0
10 0.0
11 0.0
12 0.0
13 0.0
14 -1.11053354473159
15 0.0
16 0.0
17 0.76880737921818
18 0.0
 Sym=     18.1
 Ene=       3.7578
 Spin= Alpha
 Occup=   -0.000000
1 5.03458795966741
2 -10.0053768803935
3 0.64819787178625
4 -2.28066664387406
5 0.0
6 0.0
7 1.88710790136754
8 0.0
9 0.0
10 -5.03458794195615
11 10.0053768587937
12 -0.64819786193680
13 -2.28066664391800
14 0.0
15 0.0
16 1.88710788841303
17 0.0
18 0.0
