[Molden Format]
[Atoms] Angs
N     1    7         0.0000000000        0.0000000000        0.0000000000
N     2    7         0.0000000000        0.0000000000        1.0900000000
[GTO]
   1 0
 s    6  1.00
  0.6293480000D+04  0.1969788147D-02
  0.9490440000D+03  0.1496128592D-01
  0.2187760000D+03  0.7350053084D-01
  0.6369160000D+02  0.2489367658D+00
  0.1882820000D+02  0.6024594331D+00
  0.2720230000D+01  0.2562017589D+00
 s    3  1.00
  0.3063310000D+02  0.1119060795D+00
  0.7026140000D+01  0.9216666549D+00
  0.2112050000D+01 -0.2569191826D-02
 s    1  1.00
  0.6840090000D+00  0.1000000000D+01
 s    1  1.00
  0.2008780000D+00  0.1000000000D+01
 p    3  1.00
  0.3063310000D+02  0.3831191864D-01
  0.7026140000D+01  0.2374031155D+00
  0.2112050000D+01  0.8175923978D+00
 p    1  1.00
  0.6840090000D+00  0.1000000000D+01
 p    1  1.00
  0.2008780000D+00  0.1000000000D+01
  
   2 0
 s    6  1.00
  0.6293480000D+04  0.1969788147D-02
  0.9490440000D+03  0.1496128592D-01
  0.2187760000D+03  0.7350053084D-01
  0.6369160000D+02  0.2489367658D+00
  0.1882820000D+02  0.6024594331D+00
  0.2720230000D+01  0.2562017589D+00
 s    3  1.00
  0.3063310000D+02  0.1119060795D+00
  0.7026140000D+01  0.9216666549D+00
  0.2112050000D+01 -0.2569191826D-02
 s    1  1.00
  0.6840090000D+00  0.1000000000D+01
 s    1  1.00
  0.2008780000D+00  0.1000000000D+01
 p    3  1.00
  0.3063310000D+02  0.3831191864D-01
  0.7026140000D+01  0.2374031155D+00
  0.2112050000D+01  0.8175923978D+00
 p    1  1.00
  0.6840090000D+00  0.1000000000D+01
 p    1  1.00
  0.2008780000D+00  0.1000000000D+01


[MO]
 Sym=      2.1
 Ene=     -15.6839
 Spin= Alpha
 Occup=    1.999999
1 0.39449303559338
2 0.33160744731946
3 0.002205530198157
4 -0.001633993469030
5 0.0
6 0.0
7 0.002024303971170
8 0.0
9 0.0
10 -0.000926556238708
11 0.0
12 0.0
13 -0.000068397152848
14 -0.39449303559160
15 -0.33160744731807
16 -0.002205530197721
17 0.001633993469084
18 0.0
19 0.0
20 0.002024303971120
21 0.0
22 0.0
23 -0.000926556238838
24 0.0
25 0.0
26 -0.000068397152817
 Sym=      1.1
 Ene=     -15.6334
 Spin= Alpha
 Occup=    2.000000
1 0.39886719872100
2 0.33943801471810
3 -0.021737802351400
4 -0.009600866031187
5 0.0
6 0.0
7 -0.004061607062294
8 0.0
9 0.0
10 -0.009670509134375
11 0.0
12 0.0
13 -0.000341129456353
14 0.39886719872284
15 0.33943801471960
16 -0.021737802351407
17 -0.009600866030603
18 0.0
19 0.0
20 0.004061607062321
21 0.0
22 0.0
23 0.009670509134400
24 0.0
25 0.0
26 0.000341129455932
 Sym=      3.1
 Ene=      -0.6146
 Spin= Alpha
 Occup=    1.999889
1 0.0
2 0.0
3 0.0
4 0.0
5 0.18907346608205
6 0.0
7 0.0
8 0.32193801072640
9 0.0
10 0.0
11 0.22600345525410
12 0.0
13 0.0
14 0.0
15 0.0
16 0.0
17 0.0
18 0.18907346608143
19 0.0
20 0.0
21 0.32193801072570
22 0.0
23 0.0
24 0.22600345525620
25 0.0
26 0.0
 Sym=      4.1
 Ene=      -1.5584
 Spin= Alpha
 Occup=    1.999874
1 -0.064249653147460
2 -0.12672087764391
3 0.41527511696261
4 0.15583070940153
5 0.0
6 0.0
7 0.10084059788607
8 0.0
9 0.0
10 0.14782901469533
11 0.0
12 0.0
13 0.004985417374102
14 -0.064249653147028
15 -0.12672087764365
16 0.41527511696274
17 0.15583070939707
18 0.0
19 0.0
20 -0.10084059788601
21 0.0
22 0.0
23 -0.14782901469578
24 0.0
25 0.0
26 -0.004985417370438
 Sym=      7.1
 Ene=      -0.5213
 Spin= Alpha
 Occup=    1.534165
1 0.026076422829660
2 0.042188825762423
3 -0.094469436870789
4 -0.31543816825731
5 0.0
6 0.0
7 0.21602818104703
8 0.0
9 0.0
10 0.32465372160511
11 0.0
12 0.0
13 0.16366794310161
14 0.026076422829185
15 0.042188825761672
16 -0.094469436868477
17 -0.31543816825982
18 0.0
19 0.0
20 -0.21602818104619
21 0.0
22 0.0
23 -0.32465372160453
24 0.0
25 0.0
26 -0.16366794309760
 Sym=      5.1
 Ene=      -0.7439
 Spin= Alpha
 Occup=    1.962467
1 -0.080318825580983
2 -0.13748509253757
3 0.40325929049901
4 0.53935767564996
5 0.0
6 0.0
7 -0.093845238020959
8 0.0
9 0.0
10 -0.11892287402134
11 0.0
12 0.0
13 -0.031205531302133
14 0.080318825581159
15 0.13748509253772
16 -0.40325929049998
17 -0.53935767565149
18 0.0
19 0.0
20 -0.093845238022459
21 0.0
22 0.0
23 -0.11892287402312
24 0.0
25 0.0
26 -0.031205531304393
 Sym=      6.1
 Ene=      -0.6238
 Spin= Alpha
 Occup=    1.931490
1 0.0
2 0.0
3 0.0
4 0.0
5 0.0
6 0.19762093491001
7 0.0
8 0.0
9 0.32929967107149
10 0.0
11 0.0
12 0.21293513846648
13 0.0
14 0.0
15 0.0
16 0.0
17 0.0
18 0.0
19 0.19762093490921
20 0.0
21 0.0
22 0.32929967107021
23 0.0
24 0.0
25 0.21293513846518
26 0.0
 Sym=      8.1
 Ene=       0.0542
 Spin= Alpha
 Occup=    0.572116
1 0.0
2 0.0
3 0.0
4 0.0
5 0.0
6 0.24230930249429
7 0.0
8 0.0
9 0.39336041090642
10 0.0
11 0.0
12 0.47099276421807
13 0.0
14 0.0
15 0.0
16 0.0
17 0.0
18 0.0
19 -0.24230930249531
20 0.0
21 0.0
22 -0.39336041090848
23 0.0
24 0.0
25 -0.47099276421742
26 0.0
 Sym=      9.1
 Ene=       0.1590
 Spin= Alpha
 Occup=   -0.000000
1 0.0
2 0.0
3 0.0
4 0.0
5 0.19956953926045
6 0.0
7 0.0
8 0.29801647539953
9 0.0
10 0.0
11 0.69373159661110
12 0.0
13 0.0
14 0.0
15 0.0
16 0.0
17 0.0
18 -0.19956953926053
19 0.0
20 0.0
21 -0.29801647539963
22 0.0
23 0.0
24 -0.69373159661084
25 0.0
26 0.0
 Sym=     10.1
 Ene=       0.5527
 Spin= Alpha
 Occup=   -0.000000
1 -0.048260550467720
2 -0.084574260956073
3 0.21943074254439
4 4.40385551604040
5 0.0
6 0.0
7 0.035280061292724
8 0.0
9 0.0
10 -0.047574539064789
11 0.0
12 0.0
13 2.81284070846393
14 0.048260550467884
15 0.084574260956344
16 -0.21943074254552
17 -4.40385551603944
18 0.0
19 0.0
20 0.035280061293051
21 0.0
22 0.0
23 -0.047574539064542
24 0.0
25 0.0
26 2.81284070846485
 Sym=     11.1
 Ene=       0.6817
 Spin= Alpha
 Occup=   -0.000000
1 0.012763892669625
2 0.032271675551263
3 -0.37138889742343
4 0.000620239850165
5 0.0
6 0.0
7 -0.082639808325381
8 0.0
9 0.0
10 -0.41206140939127
11 0.0
12 0.0
13 1.08602077037701
14 0.012763892669577
15 0.032271675551198
16 -0.37138889742344
17 0.000620239849513
18 0.0
19 0.0
20 0.082639808325727
21 0.0
22 0.0
23 0.41206140939168
24 0.0
25 0.0
26 -1.08602077037612
 Sym=     12.1
 Ene=       0.7095
 Spin= Alpha
 Occup=   -0.000000
1 0.0
2 0.0
3 0.0
4 0.0
5 0.0
6 -0.13664419942779
7 0.0
8 0.0
9 -0.59032291486717
10 0.0
11 0.0
12 0.69483996068333
13 0.0
14 0.0
15 0.0
16 0.0
17 0.0
18 0.0
19 -0.13664419942800
20 0.0
21 0.0
22 -0.59032291486862
23 0.0
24 0.0
25 0.69483996068951
26 0.0
 Sym=     13.1
 Ene=       0.7098
 Spin= Alpha
 Occup=   -0.000000
1 0.0
2 0.0
3 0.0
4 0.0
5 -0.13850621693869
6 0.0
7 0.0
8 -0.59969328904525
9 0.0
10 0.0
11 0.69089807410529
12 0.0
13 0.0
14 0.0
15 0.0
16 0.0
17 0.0
18 -0.13850621693904
19 0.0
20 0.0
21 -0.59969328904630
22 0.0
23 0.0
24 0.69089807410786
25 0.0
26 0.0
 Sym=     14.1
 Ene=       0.8243
 Spin= Alpha
 Occup=   -0.000000
1 -0.076134259836974
2 -0.16214745963544
3 1.10528313324278
4 -0.92935858410852
5 0.0
6 0.0
7 -0.072828700471756
8 0.0
9 0.0
10 -0.21433615431127
11 0.0
12 0.0
13 0.17286732616013
14 -0.076134259836967
15 -0.16214745963548
16 1.10528313324436
17 -0.92935858412336
18 0.0
19 0.0
20 0.072828700472175
21 0.0
22 0.0
23 0.21433615431274
24 0.0
25 0.0
26 -0.17286732615399
 Sym=     15.1
 Ene=       0.8653
 Spin= Alpha
 Occup=   -0.000000
1 0.0
2 0.0
3 0.0
4 0.0
5 0.0
6 -0.15246724353723
7 0.0
8 0.0
9 -0.60754993037802
10 0.0
11 0.0
12 1.37771856458822
13 0.0
14 0.0
15 0.0
16 0.0
17 0.0
18 0.0
19 0.15246724353684
20 0.0
21 0.0
22 0.60754993037568
23 0.0
24 0.0
25 -1.37771856458547
26 0.0
 Sym=     16.1
 Ene=       0.8924
 Spin= Alpha
 Occup=   -0.000000
1 0.0
2 0.0
3 0.0
4 0.0
5 -0.18709548163623
6 0.0
7 0.0
8 -0.67252182352244
9 0.0
10 0.0
11 1.27880515159381
12 0.0
13 0.0
14 0.0
15 0.0
16 0.0
17 0.0
18 0.18709548163642
19 0.0
20 0.0
21 0.67252182352177
22 0.0
23 0.0
24 -1.27880515159210
25 0.0
26 0.0
 Sym=     17.1
 Ene=       1.0294
 Spin= Alpha
 Occup=   -0.000000
1 0.014536615329302
2 0.033637939728958
3 -0.46359573775808
4 3.43097396623441
5 0.0
6 0.0
7 0.19989154258884
8 0.0
9 0.0
10 0.83480357579531
11 0.0
12 0.0
13 1.04106356571745
14 -0.014536615329185
15 -0.033637939728668
16 0.46359573775580
17 -3.43097396623212
18 0.0
19 0.0
20 0.19989154258876
21 0.0
22 0.0
23 0.83480357579452
24 0.0
25 0.0
26 1.04106356571826
 Sym=     18.1
 Ene=       1.4372
 Spin= Alpha
 Occup=   -0.000000
1 0.092239224668757
2 0.19872073873514
3 -1.45174558567803
4 5.57325995401152
5 0.0
6 0.0
7 -0.21165077960441
8 0.0
9 0.0
10 -0.50588562272034
11 0.0
12 0.0
13 2.58111916645947
14 -0.092239224668696
15 -0.19872073873499
16 1.45174558567725
17 -5.57325995401107
18 0.0
19 0.0
20 -0.21165077960453
21 0.0
22 0.0
23 -0.50588562272021
24 0.0
25 0.0
26 2.58111916645910
 Sym=     19.1
 Ene=       3.9480
 Spin= Alpha
 Occup=   -0.000000
1 0.0
2 0.0
3 0.0
4 0.0
5 0.91345065948402
6 0.0
7 0.0
8 -0.90544370335246
9 0.0
10 0.0
11 0.31898826040851
12 0.0
13 0.0
14 0.0
15 0.0
16 0.0
17 0.0
18 0.91345065948918
19 0.0
20 0.0
21 -0.90544370335892
22 0.0
23 0.0
24 0.31898826041206
25 0.0
26 0.0
 Sym=     20.1
 Ene=       3.9488
 Spin= Alpha
 Occup=   -0.000000
1 0.0
2 0.0
3 0.0
4 0.0
5 0.0
6 0.91192060173376
7 0.0
8 0.0
9 -0.90894719672339
10 0.0
11 0.0
12 0.31941708894427
13 0.0
14 0.0
15 0.0
16 0.0
17 0.0
18 0.0
19 0.91192060173933
20 0.0
21 0.0
22 -0.90894719673047
23 0.0
24 0.0
25 0.31941708894808
26 0.0
 Sym=     21.1
 Ene=       3.9727
 Spin= Alpha
 Occup=   -0.000000
1 0.020205585566717
2 0.061091668997224
3 -0.52288348882607
4 0.85900069874404
5 0.0
6 0.0
7 0.90143806365910
8 0.0
9 0.0
10 -1.51139532518081
11 0.0
12 0.0
13 0.78118270672290
14 -0.020205585566737
15 -0.061091668997207
16 0.52288348882573
17 -0.85900069874364
18 0.0
19 0.0
20 0.90143806366123
21 0.0
22 0.0
23 -1.51139532518287
24 0.0
25 0.0
26 0.78118270672402
 Sym=     22.1
 Ene=       4.1601
 Spin= Alpha
 Occup=   -0.000000
1 0.0
2 0.0
3 0.0
4 0.0
5 0.92476492646417
6 0.0
7 0.0
8 -1.12962657781625
9 0.0
10 0.0
11 0.60947098260209
12 0.0
13 0.0
14 0.0
15 0.0
16 0.0
17 0.0
18 -0.92476492645909
19 0.0
20 0.0
21 1.12962657781109
22 0.0
23 0.0
24 -0.60947098260043
25 0.0
26 0.0
 Sym=     23.1
 Ene=       4.1623
 Spin= Alpha
 Occup=   -0.000000
1 0.0
2 0.0
3 0.0
4 0.0
5 0.0
6 0.92090326910094
7 0.0
8 0.0
9 -1.13723625393414
10 0.0
11 0.0
12 0.60672761216087
13 0.0
14 0.0
15 0.0
16 0.0
17 0.0
18 0.0
19 -0.92090326909536
20 0.0
21 0.0
22 1.13723625392865
23 0.0
24 0.0
25 -0.60672761215901
26 0.0
 Sym=     24.1
 Ene=       4.4587
 Spin= Alpha
 Occup=   -0.000000
1 0.004053055208548
2 -0.007327632465632
3 0.12630563415048
4 -0.12922483589217
5 0.0
6 0.0
7 0.96730684188366
8 0.0
9 0.0
10 -0.95108202590188
11 0.0
12 0.0
13 0.45198762629616
14 0.004053055208492
15 -0.007327632465764
16 0.12630563415154
17 -0.12922483589384
18 0.0
19 0.0
20 -0.96730684188165
21 0.0
22 0.0
23 0.95108202589879
24 0.0
25 0.0
26 -0.45198762629461
 Sym=     25.1
 Ene=      36.2872
 Spin= Alpha
 Occup=   -0.000000
1 -1.51502481796808
2 1.58177108197166
3 -0.18080512892230
4 0.090706242650435
5 0.0
6 0.0
7 0.002428763626213
8 0.0
9 0.0
10 0.013814995417348
11 0.0
12 0.0
13 0.008443002369417
14 -1.51502481797362
15 1.58177108197754
16 -0.18080512892348
17 0.090706242652952
18 0.0
19 0.0
20 -0.002428763626303
21 0.0
22 0.0
23 -0.013814995416902
24 0.0
25 0.0
26 -0.008443002370528
 Sym=     26.1
 Ene=      36.8865
 Spin= Alpha
 Occup=   -0.000000
1 -1.52016989395234
2 1.61409033185064
3 -0.31747335312579
4 0.68556620257532
5 0.0
6 0.0
7 0.023854020448627
8 0.0
9 0.0
10 -0.12212838811469
11 0.0
12 0.0
13 0.29948414439367
14 1.52016989394681
15 -1.61409033184488
16 0.31747335312512
17 -0.68556620257501
18 0.0
19 0.0
20 0.023854020448617
21 0.0
22 0.0
23 -0.12212838811474
24 0.0
25 0.0
26 0.29948414439363
