[Molden Format]
[Molpro variables]
_NUMVAR=  891.0000000000000    
_AVOGAD= 0.6022136736000000E+24
_BOLTZ= 0.1380658000000000E-22
_CLIGHT=  29979245800.00000    
_EV= 0.3674932379085202E-01
_ENULL= 0.8854187817000000E-11
_KJOULE= 0.3808798324128737E-03
_KJOULE/MOL= 0.3808798324128737E-03
_CM= 0.4556335267302901E-05
_CM-1= 0.4556335267302901E-05
_DEB2SI= 0.3335641000000000E-29
_AMU2AU=  1822.888390000000    
_KCAL= 0.1593601117815568E-02
_KCAL/MOL= 0.1593601117815568E-02
_KELVIN= 0.3166811411060229E-05
_JOULE= 0.4359748200000000E-17
_HERTZ= 0.1519829846004524E-15
_HZ= 0.1519829846004524E-15
_JPCAL=  4.184000000000000    
_PLANCK= 0.6626075540000000E-33
_TOA= 0.5291772109200000    
_TOANG= 0.5291772109200000    
_TORAD= 0.1745329251994330E-01
_TOCM=  219474.6306700000    
_TODEBYE=  2.541580000000000    
_TOE= 0.4803242000000000E-09
_TOEV=  27.21138505000000    
_TOHERTZ=  6579683920729000.    
_TOHZ=  6579683920729000.    
_TOK=  315775.0400000000    
_TOKCAL=  627.5096000000000    
_TOKELVIN=  315775.0400000000    
_TOKJ=  2625.500000000000    
_TOKJOULE=  2625.500000000000    
_TOKG= 0.1660565586000000E-26
_ANG=  1.889726124565062    
_ANGSTROM=  1.889726124565062    
_RPAREF=  0.000000000000000    
_RPADISS=  0.000000000000000    
_IGNORE_UNDEF=  2.000000000000000    
_STRICTCHECK=  0.000000000000000    
_SEW_ONEEL=  0.000000000000000    
_CPPDONE=FALSE
_DKROLL_DONE=  0.000000000000000    
_FOCKDONE=TRUE
_GRADONE=FALSE
_HESSDONE=FALSE
_INTDONE=TRUE
_SCFDONE=TRUE
_MODUL_BLOCK=FALSE
_MODUL_CUDA=FALSE
_MODUL_SLATER=FALSE
_MODUL_MRCC=FALSE
_MODUL_NBO6=FALSE
_MODUL_NECI=TRUE
_MODUL_AIMS=TRUE
_MRCC_EXEC=
_FITC_AO_SAVED=FALSE
_FITC_MO_SAVED=FALSE
_SHARED_FS=TRUE
_LSTYP=SEWARD
_INTYP=INTS
_GEOMTYP=ZMAT
_GRADTYP=ALASKA
_DIRECT=FALSE
_DKHO= -1.000000000000000    
_SYNCM=  0.000000000000000    
_BASIS=6-31G
_ZORIENT=  1.000000000000000    
_NELEC=  14.00000000000000    
!SPIN=  0.000000000000000    
_QSDSTEP=  0.000000000000000    
_QSDIRC=  0.000000000000000    
_PROGRAM=HF-SCF
_CPUSTEP= 0.4999999999999999E-01
_SYSSTEP=  0.000000000000000    
_WALLSTEP= 0.7000000000000001E-01
!DFSCF=  0.000000000000000    
!SCSGRD=  0.000000000000000    
_BASINP=  610.0000000000000    
_CARTESIAN=TRUE
_CPUTOT= 0.3500000000000000    
_CPUSORT= 0.2999999999999997E-01
_SYSSORT= 0.1000000000000001E-01
_WALLSORT= 0.4999999701976776E-01
_DFTEXFAC=  1.000000000000000    
_DMX=  0.000000000000000    
_DMY=  0.000000000000000    
_DMZ=-0.2202488934350955    
_DMX_SCF=  0.000000000000000    
_DMY_SCF=  0.000000000000000    
_DMZ_SCF=-0.2202488934350955    
_EHOMO=-0.5507283208089669    
_ELUMO= 0.1432716085545704    
_EIGS= -20.68620711465853    
_ENERGY= -112.6672044595069    
_ENERGY_METHOD=HF
_ENERGY_BASIS=6-31G
_GEOMETRY_METHOD=
_GEOMETRY_BASIS=
_ENUC=  22.51829611559392    
_GRADEXFAC=  9999.000000000000    
_GRADMETHOD=  1.000000000000000    
_NMRMETHOD=  0.000000000000000    
_NMRMAGNET=  0.000000000000000    
!GRID_FREEZE= -1.000000000000000    
_ITERATIONS=  9.000000000000000    
_LASTNELEC=  14.00000000000000    
_LASTSPIN=  0.000000000000000    
_LASTSYM=  1.000000000000000    
_MPP_PROG=  0.000000000000000    
_RS2PHASE=  0.000000000000000    
_NPROC_MPP=  1.000000000000000    
_NPROC_MPPX=  1.000000000000000    
_NPROC_SMP=  1.000000000000000    
_NUMSTEP=  0.000000000000000    
_ORBITAL=  2100.200000000000    
_PI=  3.141592653589793    
_SEIG_MIN= 0.2187633876527147E-01
_SEWPROP=TRUE
_STATUS=  1.000000000000000    
_SYSTOT= 0.2000000000000000    
_VERSION=  2015001.000000000    
_WALLTOT= 0.5800000000000000    
_DATE=06-Oct-21
_LASTORB=RHF
_MACHINE= 64 bit serial version
_OUTPUT=/home/jeremy/newCalcsForXray/CO/CO.xml
_PGROUP=C2v
_TIME=13:49:16
_LIBMOL=/shared/apps/quantum/molpro2015.1/lib/
_VIGRDC=  0.000000000000000    
!VIBCNT=  0.000000000000000    
!RGHFCNT=  0.000000000000000    
!SURFREC=  0.000000000000000    
!ROTREC=  0.000000000000000    
!POLYREC=  0.000000000000000    
!DIPREC=  0.000000000000000    
!DIP4DREC=  0.000000000000000    
!DIPROT=  0.000000000000000    
!DIP4DROT=  0.000000000000000    
!PTREC=  0.000000000000000    
!PT4DREC=  0.000000000000000    
!VSCFREC=  0.000000000000000    
!VCIREC=  0.000000000000000    
!PVCIREC=  0.000000000000000    
!VMP2REC=  0.000000000000000    
!VMCSCFREC=  0.000000000000000    
!VMRCIREC=  0.000000000000000    
!VIBSTATEREC=  0.000000000000000    
!VIBSTATECNT=  0.000000000000000    
!VIBINFO=  0.000000000000000    
!GAREC=  0.000000000000000    
!SCFORB=  21002.00000000000    
!NEWMOL= -1.000000000000000    
!NEWSYM= -1.000000000000000    
_SLFILES=slscratch
_NGSSTO=  9.000000000000000    
_SIN=SIN
_COS=COS
_TAN=TAN
_ACOS=ACOS
_ASIN=ASIN
_ATAN=ATAN
_COSH=COSH
_SINH=SINH
_TANH=TANH
_ABS=ABS
_MOD=MOD
_ERF=ERF
_REFC=REFC
_ERFC=ERFC
_HYPOT=HYPOT
_J0=J0
_J1=J1
_JN=JN
_GAMMA=GAMMA
_LGAMMA=LGAMMA
_Y0=Y0
_Y1=Y1
_YN=YN
_EXP=EXP
_LOG=LOG
_LOG10=LOG10
_SQRT=SQRT
_INT=INT
_NINT=NINT
_MAX=MAX
_MIN=MIN
_COSMO=  0.000000000000000    
_COSMOIT=  0.000000000000000    
_COSMOES=  0.000000000000000    
_COSMOEDS=  0.000000000000000    
_COSMOEC=  0.000000000000000    
_COSMOEDCORR=  0.000000000000000    
_FEPSI=  1.000000000000000    
_SL_IsMM=  0.000000000000000    
_SL_NSYM=  4.000000000000000    
_SL_System_BitSw=  0.000000000000000    
_SL_Unique_atoms=  0.000000000000000    
_SL_GRAD=  0.000000000000000    
_SL_MAXUPD_Hess=  5.000000000000000    
_SL_N_PRINT_COD=  5.000000000000000    
_SL_PRINT_CODES=  0.000000000000000    
_SL_BasType=  0.000000000000000    
_SL_Energy_Pred=  0.000000000000000    
_SL_New_Coords=  0.000000000000000    
_SL_Total_Nuclea=  0.000000000000000    
_SL_Highest_Mltp=  0.000000000000000    
_SL_Ref_Geom=  0.000000000000000    
_SL_Symmetry_ope=  1.000000000000000    
_SL_agrad=  0.000000000000000    
_SL_GrdMax=  0.000000000000000    
_SL_GrdNorm=  0.000000000000000    
_SL_GrdRMS=  0.000000000000000    
_SL_Hss_Q=  0.000000000000000    
_SL_Hss_X=  0.000000000000000    
_SL_BMxOld=  0.000000000000000    
_SL_KtB=  0.000000000000000    
_SL_TROld=  0.000000000000000    
_SL_No_of_Intern=  0.000000000000000    
_SL_Hess=  0.000000000000000    
_SL_K=  0.000000000000000    
!LATTICE= -1.000000000000000    
!NEWLATTICE=  0.000000000000000    
!LATGRAD_VAR=FALSE
!SEW_LATTICE=  1.000000000000000    
!LOCAL=  0.000000000000000    
!SAVEDOM= -1.000000000000000    
!RESTDOM= -1.000000000000000    
!SAVEDOM_HF= -1.000000000000000    
!RESTDOM_HF= -1.000000000000000    
!HESSREC=  0.000000000000000    
!FREQREC=  0.000000000000000    
!NMODREC=  0.000000000000000    
!GTASKS=  0.000000000000000    
!HTASKS=  0.000000000000000    
!SAVEDOM_EOM= -1.000000000000000    
!RESTDOM_EOM= -1.000000000000000    
!GRADSTATE= -1.000000000000000    
!THRCHG= 0.1000000000000000    
!DEBUG= -1.000000000000000    
!CFIT_CPHF=  0.000000000000000    
!RDOMAUX_CPHF=  3.000000000000000    
!THRAO_CPHF= 0.1000000000000000E-09
!THRMO_CPHF= 0.1000000000000000E-08
!THROV_CPHF= 0.1000000000000000E-11
!THRSW_CPHF= 0.1000000000000000E-09
!THRPROD_CPHF= 0.1000000000000000E-08
!THRAOPR_CPHF= 0.1000000000000000E-11
!CFIT_SCFGRD=  0.000000000000000    
!RDOMAUX_SCFGRD=  5.000000000000000    
!THRAO_SCFGRD= 0.1000000000000000E-09
!THRMO_SCFGRD= 0.1000000000000000E-08
!THROV_SCFGRD= 0.1000000000000000E-11
!THRSW_SCFGRD= 0.1000000000000000E-09
!THRPROD_SCFGRD= 0.1000000000000000E-08
!THRAOPR_SCFGRD= 0.1000000000000000E-11
!LOCFIT_SCF=  0.000000000000000    
!LOCFIT_MP2= -1.000000000000000    
_RIDOM=  0.000000000000000    
!CC2_METHOD=  0.000000000000000    
_BASIS2006=FALSE
_SVDDEL= -1.000000000000000    
_SVDDELA= -1.000000000000000    
_SVDDELP= -1.000000000000000    
_SVDDELF= -1.000000000000000    
_SVDDELS= -1.000000000000000    
_SVDDEL_ABS= -1.000000000000000    
_SVDDELA_ABS= -1.000000000000000    
_SVDDELP_ABS= -1.000000000000000    
_SVDDELF_ABS= -1.000000000000000    
_SVDDELS_ABS= -1.000000000000000    
_MAXBASIS=  0.000000000000000    
!OPT_CONICAL=  0.000000000000000    
!CLEARSP_JGRID=  0.000000000000000    
_GRDHYBR=  0.000000000000000    
_STATEGRAD=  1.000000000000000    
_4EXT_NDISKS=  1.000000000000000    
!ZMP=  0.000000000000000    
_MAXIT_ZMP=  500.0000000000000    
_MAXDIS_ZMP=  100.0000000000000    
_ACCU_ZMP=  14.00000000000000    
_SHIFTA_ZMP= -100.0000000000000    
!EMBEDFLAG=  1.000000000000000    
!EMBED=FALSE
!EMBED_F12=FALSE
!EMBEDNUC=  0.000000000000000    
_EMBEDENERGY=  0.000000000000000    
_KSPACETIME=  0.000000000000000    
_RSPACETIME=  0.000000000000000    
!EMBED_DFC=FALSE
!NUM_VOIDS=  0.000000000000000    
_IBODY=  0.000000000000000    
_EMBE_TOTAL=  0.000000000000000    
_EMBE_HF=  0.000000000000000    
_EMBE_CORR=  0.000000000000000    
!EMBED_PROJ=FALSE
!EMBED_TRUNC=  0.000000000000000    
!EMB_PROJ_ZMU=  1000000.000000000    
!CORRECTION=  0.000000000000000    
!CORRECTION_HF=  0.000000000000000    
!EMBED_ENERGY=  0.000000000000000    
!EMBED_NAXC=FALSE
!EMBED_AORB=  0.000000000000000    
!EMBED_NACORR=  0.000000000000000    
!EMBED_MP2=FALSE
!EMBED_TRUNC_PERTURBATION=FALSE
!EMBED_FROZEN=  0.000000000000000    
_CHANGE_BASIS=FALSE
_RESTORE_BASIS=FALSE
_FIX_EMBED_GUESS=FALSE
!EDFT=  0.000000000000000    
_IFASTLATGRAD=  0.000000000000000    
_SINDEX=  0.000000000000000    
_AVDOM_OSV=  0.000000000000000    
_AVDOM_PNO=  0.000000000000000    
_AVDOM_PAO=  0.000000000000000    
_AVDOM_LMO=  0.000000000000000    
_CC2OSV_FLAG=  0.000000000000000    
_TMADC2_FLAG=FALSE
_PROPADC2_FLAG=FALSE
_LEN_VirQ=  0.000000000000000    
_GRDCC2LR_FLAG=FALSE
_GRDADC2_FLAG=FALSE
R1=  2.131600000000000    
GX1=  0.000000000000000    
GY1=  0.000000000000000    
GZ1= -1.217559229429069    
GX2=  0.000000000000000    
GY2=  0.000000000000000    
GZ2= 0.9140407705709308    
[Atoms] Angs
C     1    6         0.0000000000        0.0000000000       -0.6443045972
O     2    8         0.0000000000        0.0000000000        0.4836895456
[GTO]
   1 0
 s    6  1.00
  0.3047524900D+04  0.1834737091D-02
  0.4573695200D+03  0.1403732293D-01
  0.1039486800D+03  0.6884262165D-01
  0.2921015500D+02  0.2321844388D+00
  0.9286663000D+01  0.4679413476D+00
  0.3163927000D+01  0.3623119882D+00
 s    3  1.00
  0.7868272300D+01 -0.1193324245D+00
  0.1881288500D+01 -0.1608541561D+00
  0.5442492600D+00  0.1143456443D+01
 s    1  1.00
  0.1687144800D+00  0.1000000000D+01
 p    3  1.00
  0.7868272300D+01  0.6899906693D-01
  0.1881288500D+01  0.3164239597D+00
  0.5442492600D+00  0.7443082892D+00
 p    1  1.00
  0.1687144800D+00  0.1000000000D+01
  
   2 0
 s    6  1.00
  0.5484671700D+04  0.1831074396D-02
  0.8252349500D+03  0.1395017197D-01
  0.1880469600D+03  0.6844507786D-01
  0.5296450000D+02  0.2327143395D+00
  0.1689757000D+02  0.4701928990D+00
  0.5799635300D+01  0.3585208493D+00
 s    3  1.00
  0.1553961600D+02 -0.1107775519D+00
  0.3599933600D+01 -0.1480262626D+00
  0.1013761800D+01  0.1130767020D+01
 s    1  1.00
  0.2700058200D+00  0.1000000000D+01
 p    3  1.00
  0.1553961600D+02  0.7087426737D-01
  0.3599933600D+01  0.3397528370D+00
  0.1013761800D+01  0.7271585736D+00
 p    1  1.00
  0.2700058200D+00  0.1000000000D+01
 
 
[MO]
 Sym=      1.1
 Ene=     -20.6862
 Spin= Alpha
 Occup=    2.000000
1 0.000190910554634
2 0.000136602631335
3 0.006198580123460
4 0.0
5 0.0
6 -0.000145213159888
7 0.0
8 0.0
9 0.003921091441242
10 0.99582704956208
11 0.022874170083524
12 -0.012239356971022
13 0.0
14 0.0
15 -0.002503663065855
16 0.0
17 0.0
18 0.003887218488080
 Sym=      2.1
 Ene=     -11.3963
 Spin= Alpha
 Occup=    2.000000
1 0.99633742435060
2 0.022009795855204
3 -0.003888955865783
4 0.0
5 0.0
6 0.004682358304931
7 0.0
8 0.0
9 -0.000781859556942
10 -0.000703022549669
11 0.000634599682846
12 -0.001868781136290
13 0.0
14 0.0
15 -0.000675321370122
16 0.0
17 0.0
18 0.002810477233819
 Sym=      3.1
 Ene=      -1.5616
 Spin= Alpha
 Occup=    2.000000
1 -0.11392833206547
2 0.23376565692364
3 -0.005603998197524
4 0.0
5 0.0
6 0.21909632154285
7 0.0
8 0.0
9 -0.050524405702062
10 -0.20014899745611
11 0.44931922291145
12 0.39982741668205
13 0.0
14 0.0
15 -0.19423682085043
16 0.0
17 0.0
18 -0.053691439923276
 Sym=      4.1
 Ene=      -0.7971
 Spin= Alpha
 Occup=    2.000000
1 0.12564166385237
2 -0.31827548085336
3 -0.18132747726397
4 0.0
5 0.0
6 -0.13665990039801
7 0.0
8 0.0
9 0.031781099597943
10 -0.11428398827857
11 0.26419783047034
12 0.42802973464917
13 0.0
14 0.0
15 0.48931872837060
16 0.0
17 0.0
18 0.21706624669158
 Sym=      1.2
 Ene=      -0.6426
 Spin= Alpha
 Occup=    2.000000
1 0.0
2 0.0
3 0.0
4 0.29772704236529
5 0.0
6 0.0
7 0.11558244683165
8 0.0
9 0.0
10 0.0
11 0.0
12 0.0
13 0.55957634490117
14 0.0
15 0.0
16 0.38123809977407
17 0.0
18 0.0
 Sym=      1.3
 Ene=      -0.6426
 Spin= Alpha
 Occup=    2.000000
1 0.0
2 0.0
3 0.0
4 0.0
5 0.29772704236529
6 0.0
7 0.0
8 0.11558244683165
9 0.0
10 0.0
11 0.0
12 0.0
13 0.0
14 0.55957634490117
15 0.0
16 0.0
17 0.38123809977408
18 0.0
 Sym=      5.1
 Ene=      -0.5507
 Spin= Alpha
 Occup=    2.000000
1 -0.14188336531767
2 0.25694511034647
3 0.65537189783374
4 0.0
5 0.0
6 -0.44471325424896
7 0.0
8 0.0
9 -0.11155850706872
10 0.012679202218352
11 -0.040650868460726
12 -0.058706747128941
13 0.0
14 0.0
15 0.27741665591428
16 0.0
17 0.0
18 0.16247799627538
 Sym=      2.3
 Ene=       0.1433
 Spin= Alpha
 Occup=    0.000000
1 0.0
2 0.0
3 0.0
4 0.0
5 0.46146076201017
6 0.0
7 0.0
8 0.74041275043766
9 0.0
10 0.0
11 0.0
12 0.0
13 0.0
14 -0.36159407497802
15 0.0
16 0.0
17 -0.49789909315201
18 0.0
 Sym=      2.2
 Ene=       0.1433
 Spin= Alpha
 Occup=    0.000000
1 0.0
2 0.0
3 0.0
4 0.46146076201018
5 0.0
6 0.0
7 0.74041275043765
8 0.0
9 0.0
10 0.0
11 0.0
12 0.0
13 -0.36159407497802
14 0.0
15 0.0
16 -0.49789909315200
17 0.0
18 0.0
 Sym=      6.1
 Ene=       0.4047
 Spin= Alpha
 Occup=    0.000000
1 -0.036046120465168
2 -0.14409512822101
3 2.04786744530389
4 0.0
5 0.0
6 0.086319368037573
7 0.0
8 0.0
9 1.93885090658586
10 0.093097613562233
11 -0.13242382089203
12 -2.16565008701203
13 0.0
14 0.0
15 0.095621314355390
16 0.0
17 0.0
18 0.79409703462064
 Sym=      3.2
 Ene=       0.7280
 Spin= Alpha
 Occup=    0.000000
1 0.0
2 0.0
3 0.0
4 -1.08247049544157
5 0.0
6 0.0
7 1.09905502141290
8 0.0
9 0.0
10 0.0
11 0.0
12 0.0
13 -0.039140006835686
14 0.0
15 0.0
16 -0.041197355667976
17 0.0
18 0.0
 Sym=      3.3
 Ene=       0.7280
 Spin= Alpha
 Occup=    0.000000
1 0.0
2 0.0
3 0.0
4 0.0
5 -1.08247049544157
6 0.0
7 0.0
8 1.09905502141290
9 0.0
10 0.0
11 0.0
12 0.0
13 0.0
14 -0.039140006835684
15 0.0
16 0.0
17 -0.041197355667977
18 0.0
 Sym=      7.1
 Ene=       0.7719
 Spin= Alpha
 Occup=    0.000000
1 -0.066457956018173
2 1.33054652061737
3 -1.61922801181009
4 0.0
5 0.0
6 -0.60630850873166
7 0.0
8 0.0
9 0.40185779734010
10 -0.015160064799554
11 0.065404429365257
12 0.28246173202454
13 0.0
14 0.0
15 0.10834805546757
16 0.0
17 0.0
18 -0.28553621533025
 Sym=      8.1
 Ene=       1.0113
 Spin= Alpha
 Occup=    0.000000
1 -0.005110095726339
2 1.22072940257183
3 0.12706249721200
4 0.0
5 0.0
6 0.91271632919309
7 0.0
8 0.0
9 -0.16272823818253
10 0.082269770479022
11 -0.26707373126986
12 -0.58885058658292
13 0.0
14 0.0
15 -0.10625531246741
16 0.0
17 0.0
18 1.46314884861161
 Sym=      4.3
 Ene=       1.2060
 Spin= Alpha
 Occup=    0.000000
1 0.0
2 0.0
3 0.0
4 0.0
5 0.098192426653998
6 0.0
7 0.0
8 -0.54420625602462
9 0.0
10 0.0
11 0.0
12 0.0
13 0.0
14 -0.96547441101445
15 0.0
16 0.0
17 1.27565686677535
18 0.0
 Sym=      4.2
 Ene=       1.2060
 Spin= Alpha
 Occup=    0.000000
1 0.0
2 0.0
3 0.0
4 0.098192426653998
5 0.0
6 0.0
7 -0.54420625602462
8 0.0
9 0.0
10 0.0
11 0.0
12 0.0
13 -0.96547441101445
14 0.0
15 0.0
16 1.27565686677535
17 0.0
18 0.0
 Sym=      9.1
 Ene=       1.2125
 Spin= Alpha
 Occup=    0.000000
1 -0.078585396816093
2 0.26831805546452
3 -0.22600756994173
4 0.0
5 0.0
6 0.71156896870318
7 0.0
8 0.0
9 -0.28298771307368
10 0.005780258929202
11 0.10895923035586
12 -0.24117350924781
13 0.0
14 0.0
15 1.01218441522889
16 0.0
17 0.0
18 -0.65067141531838
 Sym=     10.1
 Ene=       1.8429
 Spin= Alpha
 Occup=    0.000000
1 -0.063407026650968
2 -0.27660825315652
3 -2.42825213698673
4 0.0
5 0.0
6 -0.23195756480935
7 0.0
8 0.0
9 -1.52261848259019
10 0.037293654277582
11 -1.89753089955538
12 4.30437098735196
13 0.0
14 0.0
15 0.22713127047428
16 0.0
17 0.0
18 -1.57537061669874
