[Molden Format]
[Atoms] Angs
C     1    6         0.0000000000        0.0000000000       -0.6443045948
O     2    8         0.0000000000        0.0000000000        0.4836895439
[GTO]
   1 0
 s    6  1.00
  0.3047524900D+04  0.1834737091D-02
  0.4573695200D+03  0.1403732293D-01
  0.1039486800D+03  0.6884262165D-01
  0.2921015500D+02  0.2321844388D+00
  0.9286663000D+01  0.4679413476D+00
  0.3163927000D+01  0.3623119882D+00
 s    3  1.00
  0.7868272300D+01 -0.1193324245D+00
  0.1881288500D+01 -0.1608541561D+00
  0.5442492600D+00  0.1143456443D+01
 s    1  1.00
  0.1687144800D+00  0.1000000000D+01
 p    3  1.00
  0.7868272300D+01  0.6899906693D-01
  0.1881288500D+01  0.3164239597D+00
  0.5442492600D+00  0.7443082892D+00
 p    1  1.00
  0.1687144800D+00  0.1000000000D+01
  
   2 0
 s    6  1.00
  0.5484671700D+04  0.1831074396D-02
  0.8252349500D+03  0.1395017197D-01
  0.1880469600D+03  0.6844507786D-01
  0.5296450000D+02  0.2327143395D+00
  0.1689757000D+02  0.4701928990D+00
  0.5799635300D+01  0.3585208493D+00
 s    3  1.00
  0.1553961600D+02 -0.1107775519D+00
  0.3599933600D+01 -0.1480262626D+00
  0.1013761800D+01  0.1130767020D+01
 s    1  1.00
  0.2700058200D+00  0.1000000000D+01
 p    3  1.00
  0.1553961600D+02  0.7087426737D-01
  0.3599933600D+01  0.3397528370D+00
  0.1013761800D+01  0.7271585736D+00
 p    1  1.00
  0.2700058200D+00  0.1000000000D+01
 
 
[MO]
 Sym=      1.1
 Ene=     -20.6862
 Spin= Alpha
 Occup=    2.000000
1 0.000190910554633
2 0.000136602631336
3 0.006198580123439
4 0.0
5 0.0
6 -0.000145213159891
7 0.0
8 0.0
9 0.003921091441231
10 0.99582704956208
11 0.022874170083515
12 -0.012239356970994
13 0.0
14 0.0
15 -0.002503663065854
16 0.0
17 0.0
18 0.003887218488069
 Sym=      2.1
 Ene=     -11.3963
 Spin= Alpha
 Occup=    2.000000
1 0.99633742435060
2 0.022009795855204
3 -0.003888955865781
4 0.0
5 0.0
6 0.004682358304930
7 0.0
8 0.0
9 -0.000781859556939
10 -0.000703022549669
11 0.000634599682848
12 -0.001868781136295
13 0.0
14 0.0
15 -0.000675321370123
16 0.0
17 0.0
18 0.002810477233821
 Sym=      3.1
 Ene=      -1.5616
 Spin= Alpha
 Occup=    2.000000
1 -0.11392833206547
2 0.23376565692364
3 -0.005603998197521
4 0.0
5 0.0
6 0.21909632154285
7 0.0
8 0.0
9 -0.050524405702061
10 -0.20014899745611
11 0.44931922291145
12 0.39982741668204
13 0.0
14 0.0
15 -0.19423682085043
16 0.0
17 0.0
18 -0.053691439923276
 Sym=      4.1
 Ene=      -0.7971
 Spin= Alpha
 Occup=    2.000000
1 0.12564166385237
2 -0.31827548085335
3 -0.18132747726397
4 0.0
5 0.0
6 -0.13665990039801
7 0.0
8 0.0
9 0.031781099597945
10 -0.11428398827857
11 0.26419783047034
12 0.42802973464916
13 0.0
14 0.0
15 0.48931872837061
16 0.0
17 0.0
18 0.21706624669159
 Sym=      1.3
 Ene=      -0.6426
 Spin= Alpha
 Occup=    2.000000
1 0.0
2 0.0
3 0.0
4 0.0
5 0.29772704236529
6 0.0
7 0.0
8 0.11558244683165
9 0.0
10 0.0
11 0.0
12 0.0
13 0.0
14 0.55957634490117
15 0.0
16 0.0
17 0.38123809977408
18 0.0
 Sym=      1.2
 Ene=      -0.6426
 Spin= Alpha
 Occup=    2.000000
1 0.0
2 0.0
3 0.0
4 0.29772704236529
5 0.0
6 0.0
7 0.11558244683165
8 0.0
9 0.0
10 0.0
11 0.0
12 0.0
13 0.55957634490117
14 0.0
15 0.0
16 0.38123809977408
17 0.0
18 0.0
 Sym=      5.1
 Ene=      -0.5507
 Spin= Alpha
 Occup=    2.000000
1 -0.14188336531767
2 0.25694511034647
3 0.65537189783374
4 0.0
5 0.0
6 -0.44471325424895
7 0.0
8 0.0
9 -0.11155850706872
10 0.012679202218352
11 -0.040650868460728
12 -0.058706747128940
13 0.0
14 0.0
15 0.27741665591428
16 0.0
17 0.0
18 0.16247799627538
 Sym=      2.3
 Ene=       0.1433
 Spin= Alpha
 Occup=    0.000000
1 0.0
2 0.0
3 0.0
4 0.0
5 0.46146076201017
6 0.0
7 0.0
8 0.74041275043766
9 0.0
10 0.0
11 0.0
12 0.0
13 0.0
14 -0.36159407497802
15 0.0
16 0.0
17 -0.49789909315201
18 0.0
 Sym=      2.2
 Ene=       0.1433
 Spin= Alpha
 Occup=    0.000000
1 0.0
2 0.0
3 0.0
4 0.46146076201017
5 0.0
6 0.0
7 0.74041275043766
8 0.0
9 0.0
10 0.0
11 0.0
12 0.0
13 -0.36159407497802
14 0.0
15 0.0
16 -0.49789909315201
17 0.0
18 0.0
 Sym=      6.1
 Ene=       0.4047
 Spin= Alpha
 Occup=    0.000000
1 -0.036046120465167
2 -0.14409512822108
3 2.04786744530386
4 0.0
5 0.0
6 0.086319368037584
7 0.0
8 0.0
9 1.93885090658579
10 0.093097613562236
11 -0.13242382089210
12 -2.16565008701188
13 0.0
14 0.0
15 0.095621314355398
16 0.0
17 0.0
18 0.79409703462058
 Sym=      3.2
 Ene=       0.7280
 Spin= Alpha
 Occup=    0.000000
1 0.0
2 0.0
3 0.0
4 -1.08247049544157
5 0.0
6 0.0
7 1.09905502141290
8 0.0
9 0.0
10 0.0
11 0.0
12 0.0
13 -0.039140006835679
14 0.0
15 0.0
16 -0.041197355667980
17 0.0
18 0.0
 Sym=      3.3
 Ene=       0.7280
 Spin= Alpha
 Occup=    0.000000
1 0.0
2 0.0
3 0.0
4 0.0
5 -1.08247049544157
6 0.0
7 0.0
8 1.09905502141290
9 0.0
10 0.0
11 0.0
12 0.0
13 0.0
14 -0.039140006835678
15 0.0
16 0.0
17 -0.041197355667981
18 0.0
 Sym=      7.1
 Ene=       0.7719
 Spin= Alpha
 Occup=    0.000000
1 -0.066457956018175
2 1.33054652061735
3 -1.61922801181004
4 0.0
5 0.0
6 -0.60630850873168
7 0.0
8 0.0
9 0.40185779734016
10 -0.015160064799552
11 0.065404429365226
12 0.28246173202452
13 0.0
14 0.0
15 0.10834805546756
16 0.0
17 0.0
18 -0.28553621533024
 Sym=      8.1
 Ene=       1.0113
 Spin= Alpha
 Occup=    0.000000
1 -0.005110095726339
2 1.22072940257183
3 0.12706249721199
4 0.0
5 0.0
6 0.91271632919307
7 0.0
8 0.0
9 -0.16272823818252
10 0.082269770479023
11 -0.26707373126988
12 -0.58885058658289
13 0.0
14 0.0
15 -0.10625531246742
16 0.0
17 0.0
18 1.46314884861161
 Sym=      4.3
 Ene=       1.2060
 Spin= Alpha
 Occup=    0.000000
1 0.0
2 0.0
3 0.0
4 0.0
5 0.098192426653993
6 0.0
7 0.0
8 -0.54420625602461
9 0.0
10 0.0
11 0.0
12 0.0
13 0.0
14 -0.96547441101445
15 0.0
16 0.0
17 1.27565686677535
18 0.0
 Sym=      4.2
 Ene=       1.2060
 Spin= Alpha
 Occup=    0.000000
1 0.0
2 0.0
3 0.0
4 0.098192426653992
5 0.0
6 0.0
7 -0.54420625602461
8 0.0
9 0.0
10 0.0
11 0.0
12 0.0
13 -0.96547441101445
14 0.0
15 0.0
16 1.27565686677535
17 0.0
18 0.0
 Sym=      9.1
 Ene=       1.2125
 Spin= Alpha
 Occup=    0.000000
1 -0.078585396816093
2 0.26831805546456
3 -0.22600756994175
4 0.0
5 0.0
6 0.71156896870319
7 0.0
8 0.0
9 -0.28298771307367
10 0.005780258929203
11 0.10895923035587
12 -0.24117350924784
13 0.0
14 0.0
15 1.01218441522888
16 0.0
17 0.0
18 -0.65067141531835
 Sym=     10.1
 Ene=       1.8429
 Spin= Alpha
 Occup=    0.000000
1 -0.063407026650965
2 -0.27660825315653
3 -2.42825213698678
4 0.0
5 0.0
6 -0.23195756480935
7 0.0
8 0.0
9 -1.52261848259027
10 0.037293654277573
11 -1.89753089955538
12 4.30437098735203
13 0.0
14 0.0
15 0.22713127047428
16 0.0
17 0.0
18 -1.57537061669878
