[Molden Format]
[Molpro variables]
_NUMVAR=  1068.000000000000    
_AVOGAD= 0.6022140760000000E+24
_BOLTZ= 0.1380649000000000E-22
_CLIGHTSI=  299792458.0000000    
_JOULE= 0.4359744722207100E-17
_JPCAL=  4.184000000000000    
_PLANCK= 0.6626070150000000E-33
_BOHR= 0.5291772109030000E-10
_ECHARG= 0.1602176634000000E-18
_ENULL= 0.8854187812800001E-11
_MU= 0.1660539066600000E-26
_EMASS= 0.9109383701500001E-30
_AMU2AU=  1822.888486217313    
_CLIGHT=  29979245800.00000    
_EV= 0.3674932217565494E-01
_KJOULE= 0.3808798847133432E-03
_KJOULE/MOL= 0.3808798847133432E-03
_CM= 0.4556335252912009E-05
_CM-1= 0.4556335252912009E-05
_DEB2SI= 0.3335640951981520E-29
_KCAL= 0.1593601437640628E-02
_KCAL/MOL= 0.1593601437640628E-02
_KELVIN= 0.3166811563455608E-05
_HERTZ= 0.1519829846057038E-15
_HZ= 0.1519829846057038E-15
_TOA= 0.5291772109030000    
_TOANG= 0.5291772109030000    
_TORAD= 0.1745329251994330E-01
_TOCM=  219474.6313631965    
_TODEBYE=  2.541746473194078    
_TOE= 0.4803204712570263E-09
_TOEV=  27.21138624598803    
_TOHERTZ=  6579683920501656.    
_TOHZ=  6579683920501656.    
_TOK=  315775.0248040668    
_TOKCAL=  627.5094740630558    
_TOKELVIN=  315775.0248040668    
_TOKJ=  2625.499639479825    
_TOKJOULE=  2625.499639479825    
_TOKG= 0.1660539066600000E-26
_ANG=  1.889726124625770    
_ANGSTROM=  1.889726124625770    
_RPAREF=  0.000000000000000    
_RPADISS=  0.000000000000000    
_IGNORE_UNDEF=  2.000000000000000    
_STRICTCHECK=  0.000000000000000    
!SEWARD=  0.000000000000000    
!MULTI=  0.000000000000000    
!DFMULTI=  0.000000000000000    
_SEW_ONEEL=  0.000000000000000    
_CPPDONE=FALSE
_DKROLL_DONE=  0.000000000000000    
_FNUC_DONE=  0.000000000000000    
_FOCKDONE=TRUE
_GRADONE=FALSE
_HESSDONE=FALSE
_INTDONE=TRUE
_SCFDONE=TRUE
_MODUL_BLOCK=FALSE
_MODUL_SLATER=FALSE
_MODUL_MRCC=FALSE
_MODUL_NBO6=FALSE
_MODUL_NECI=FALSE
_MODUL_AIMS=TRUE
_MODUL_HDF5=FALSE
_MODUL_GECCO=FALSE
_ISWINDOWS=FALSE
_MRCC_EXEC=
_FITC_AO_SAVED=FALSE
_FITC_MO_SAVED=FALSE
_SHARED_FS=TRUE
_LSTYP=SEWARD
_INTYP=INTS
_GEOMTYP=ZMAT
_GRADTYP=ALASKA
_DIRECT=FALSE
_DKHO= -1.000000000000000    
_FNUC=  0.000000000000000    
_SYNCM=  0.000000000000000    
_BASIS=6-31G
_ZCENTRE=MASS
_ZORIENT=  1.000000000000000    
!ZORIENT=  0.000000000000000    
_NELEC=  50.00000000000000    
!SPIN=  0.000000000000000    
_QSDSTEP=  0.000000000000000    
_QSDIRC=  0.000000000000000    
_PROGRAM=FCI
_CPUSTEP=  1.880000000000000    
_SYSSTEP= 0.1200000000000001    
_WALLSTEP=  2.110000000000000    
!DFSCF=  0.000000000000000    
!SCSGRD=  0.000000000000000    
_NCEN=  15.00000000000000    
_CARTESIAN=FALSE
_CPUTOT=  4.260000000000000    
_DFTEXFAC=  1.000000000000000    
_DMX=  0.000000000000000    
_DMY=  0.000000000000000    
_DMZ=  0.000000000000000    
_DMX_SCF=  0.000000000000000    
_DMY_SCF=  0.000000000000000    
_DMZ_SCF=-0.1258854929824071E-01
_HOMO=  7.200000000000000    
_EHOMO=-0.3278938451248966    
_LUMO=  11.10000000000000    
_ELUMO= 0.2385795875834736    
_ENERGY=  0.000000000000000    
_ENERGY_METHOD=FCI
_ENERGY_BASIS=6-31G
_GEOMETRY_METHOD=
_GEOMETRY_BASIS=
_ENUC=  294.4044600814672    
_GRADEXFAC=  9999.000000000000    
_GRADMETHOD=  1.000000000000000    
_NMRMETHOD=  0.000000000000000    
_NMRMAGNET=  0.000000000000000    
!GRID_FREEZE= -1.000000000000000    
!NEESE_INDEX=  0.000000000000000    
_ITERATIONS=  0.000000000000000    
_LASTNELEC=  50.00000000000000    
_LASTSPIN=  0.000000000000000    
_LASTSYM=  1.000000000000000    
_MPP_PROG=  0.000000000000000    
_MSNSTATES=  0.000000000000000    
_RS2PHASE=  0.000000000000000    
_IPROC_MPP=  0.000000000000000    
_IPROC_MPPX=  0.000000000000000    
_NPROC_MPP=  1.000000000000000    
_NPROC_MPPX=  1.000000000000000    
_NPROC_SMP=  1.000000000000000    
_NUMSTEP=  0.000000000000000    
_ORBITAL=  2100.200000000000    
_PI=  3.141592653589793    
_SEIG_MIN= 0.1741950560927605E-02
_SEWPROP=TRUE
_STATUS= -1.000000000000000    
_SYSTOT=  4.680000000000000    
_VERSION=  2022003.000000000    
_WALLTOT=  9.609999999999999    
_DATE=10-Jul-23
_LASTORB=0
_OUTPUT=/users/awp2001/qmd/nb_qc/631g/qc/qc.out
_PGROUP=C2v
_TIME=10:41:40
_LIBMOL=/users/awp2001/quantum/molpro2022.3/lib/
_VIGRDC=  0.000000000000000    
!VIBCNT=  0.000000000000000    
!RGHFCNT=  0.000000000000000    
!SURFREC=  0.000000000000000    
!XSURFREC=  0.000000000000000    
!XPOLYREC=  0.000000000000000    
!ROTREC=  0.000000000000000    
!POLYREC=  0.000000000000000    
!DIPREC=  0.000000000000000    
!DIP4DREC=  0.000000000000000    
!DIPROT=  0.000000000000000    
!DIP4DROT=  0.000000000000000    
!PTREC=  0.000000000000000    
!PT4DREC=  0.000000000000000    
!VSCFREC=  0.000000000000000    
!VCIREC=  0.000000000000000    
!PVCIREC=  0.000000000000000    
!VMP2REC=  0.000000000000000    
!VMCSCFREC=  0.000000000000000    
!VMRCIREC=  0.000000000000000    
!VIBSTATEREC=  0.000000000000000    
!VIBSTATECNT=  0.000000000000000    
!VIBINFO=  0.000000000000000    
!GAREC=  0.000000000000000    
!SCFORB=  21002.00000000000    
!DEFCORE=  3.000000000000000    
!SCORE=  0.000000000000000    
!NEWMOL= -1.000000000000000    
!NEWSYM= -1.000000000000000    
_SLFILES=slscratch
_NGSSTO=  9.000000000000000    
_SIN=SIN
_COS=COS
_TAN=TAN
_ACOS=ACOS
_ASIN=ASIN
_ATAN=ATAN
_COSH=COSH
_SINH=SINH
_TANH=TANH
_ABS=ABS
_MOD=MOD
_ERF=ERF
_REFC=REFC
_ERFC=ERFC
_HYPOT=HYPOT
_J0=J0
_J1=J1
_JN=JN
_GAMMA=GAMMA
_LGAMMA=LGAMMA
_Y0=Y0
_Y1=Y1
_YN=YN
_EXP=EXP
_LOG=LOG
_LOG10=LOG10
_SQRT=SQRT
_INT=INT
_NINT=NINT
_MAX=MAX
_MIN=MIN
_COSMO=  0.000000000000000    
_COSMOIT=  0.000000000000000    
_COSMOES=  0.000000000000000    
_COSMOEDS=  0.000000000000000    
_COSMOEC=  0.000000000000000    
_COSMOEDCORR=  0.000000000000000    
_FEPSI=  1.000000000000000    
_SL_IsMM=  0.000000000000000    
_SL_NSYM=  4.000000000000000    
_SL_System_BitSw=  0.000000000000000    
_SL_Unique_atoms=  0.000000000000000    
_SL_GRAD=  0.000000000000000    
_SL_MAXUPD_Hess=  5.000000000000000    
_SL_N_PRINT_COD=  5.000000000000000    
_SL_PRINT_CODES=  0.000000000000000    
_SL_BasType=  0.000000000000000    
_SL_Energy_Pred=  0.000000000000000    
_SL_New_Coords=  0.000000000000000    
_SL_Total_Nuclea=  0.000000000000000    
_SL_Highest_Mltp=  0.000000000000000    
_SL_Ref_Geom=  0.000000000000000    
_SL_Symmetry_ope=  1.000000000000000    
_SL_agrad=  0.000000000000000    
_SL_GrdMax=  0.000000000000000    
_SL_GrdNorm=  0.000000000000000    
_SL_GrdRMS=  0.000000000000000    
_SL_Hss_Q=  0.000000000000000    
_SL_Hss_X=  0.000000000000000    
_SL_BMxOld=  0.000000000000000    
_SL_KtB=  0.000000000000000    
_SL_TROld=  0.000000000000000    
_SL_No_of_Intern=  0.000000000000000    
_SL_Hess=  0.000000000000000    
_SL_K=  0.000000000000000    
!LATTICE= -1.000000000000000    
!NEWLATTICE=  0.000000000000000    
!LATGRAD_VAR=FALSE
!SEW_LATTICE=  1.000000000000000    
!AIC_ONEEL=  0.000000000000000    
!LOCAL=  0.000000000000000    
!SAVEDOM= -1.000000000000000    
!RESTDOM= -1.000000000000000    
!SAVEDOM_HF= -1.000000000000000    
!RESTDOM_HF= -1.000000000000000    
!HESSREC=  0.000000000000000    
!FREQREC=  0.000000000000000    
!NMODREC=  0.000000000000000    
!GTASKS=  0.000000000000000    
!HTASKS=  0.000000000000000    
!SAVEDOM_EOM= -1.000000000000000    
!RESTDOM_EOM= -1.000000000000000    
!GRADSTATE= -1.000000000000000    
!DEBUG=  0.000000000000000    
!CFIT_CPHF=  0.000000000000000    
!RDOMAUX_CPHF=  0.000000000000000    
!THRAO_CPHF= 0.1000000000000000E-11
!THRMO_CPHF= 0.1000000000000000E-11
!THROV_CPHF= 0.1000000000000000E-11
!THRSW_CPHF= 0.1000000000000000E-11
!THRPROD_CPHF= 0.1000000000000000E-11
!THRAOPR_CPHF= 0.1000000000000000E-11
!CFIT_SCFGRD=  0.000000000000000    
!RDOMAUX_SCFGRD=  0.000000000000000    
!THRAO_SCFGRD= 0.1000000000000000E-11
!THRMO_SCFGRD= 0.1000000000000000E-11
!THROV_SCFGRD= 0.1000000000000000E-11
!THRSW_SCFGRD= 0.1000000000000000E-11
!THRPROD_SCFGRD= 0.1000000000000000E-11
!THRAOPR_SCFGRD= 0.1000000000000000E-11
!LOCFIT_SCF=  0.000000000000000    
!LOCFIT_MP2=  0.000000000000000    
_RIDOM=  0.000000000000000    
!CC2_METHOD=  0.000000000000000    
_BASIS2006=FALSE
_SVDDEL= -1.000000000000000    
_SVDDELA= -1.000000000000000    
_SVDDELP= -1.000000000000000    
_SVDDELF= -1.000000000000000    
_SVDDELS= -1.000000000000000    
_SVDDEL_ABS= -1.000000000000000    
_SVDDELA_ABS= -1.000000000000000    
_SVDDELP_ABS= -1.000000000000000    
_SVDDELF_ABS= -1.000000000000000    
_SVDDELS_ABS= -1.000000000000000    
_MAXBASIS=  0.000000000000000    
!OPT_CONICAL=  0.000000000000000    
!CLEARSP_JGRID=  0.000000000000000    
_GRDHYBR=  0.000000000000000    
_STATEGRAD=  1.000000000000000    
_4EXT_NDISKS=  1.000000000000000    
!EMBEDFLAG=  1.000000000000000    
!EMBED=FALSE
!EMBED_F12=FALSE
!EMBEDNUC=  0.000000000000000    
_EMBEDENERGY=  0.000000000000000    
!EMBED_DFC=FALSE
!NUM_VOIDS=  0.000000000000000    
_IBODY=  0.000000000000000    
_EMBE_CORR=  0.000000000000000    
!EMBED_PROJ=FALSE
!EMB_PROJ_ZMU=  1000000.000000000    
!CORRECTION_HF=  0.000000000000000    
!EMBED_AORB=  0.000000000000000    
!EMBED_NACORR=  0.000000000000000    
!EMBED_MP2=FALSE
!EMBED_TRUNC_PERTURBATION=FALSE
!EMBED_FROZEN=  0.000000000000000    
!EMBED_ACTIVE=  0.000000000000000    
_CHANGE_BASIS=FALSE
_RESTORE_BASIS=FALSE
_FIX_EMBED_GUESS=FALSE
_EMBED_SCF=FALSE
_HUZINAGA_T=FALSE
_HUZINAGA_F=FALSE
_HUZINAGA=FALSE
_HUZINAGA_CORRECT=FALSE
!FASTLATGRAD=  1.000000000000000    
!FASTVLAMBDA= -1.000000000000000    
!IFORCE= -1.000000000000000    
!USESYM= -1.000000000000000    
_SINDEX=  0.000000000000000    
_AVDOM_OSV=  0.000000000000000    
_AVDOM_PNO=  0.000000000000000    
_AVDOM_PAO=  0.000000000000000    
_AVDOM_LMO=  0.000000000000000    
_CC2OSV_FLAG=  0.000000000000000    
_EOMCCSD_CONV=FALSE
_TMADC2_FLAG=FALSE
_PROPADC2_FLAG=FALSE
_LEN_VirQ=  0.000000000000000    
_GRDCC2LR_FLAG=FALSE
_GRDADC2_FLAG=FALSE
_RO_VGLOBAL=  0.000000000000000    
_OPT=FALSE
_FREQ=FALSE
_HESS=FALSE
_CMRCC_callName=EMPTY
_CMRCC_callCount=  0.000000000000000    
_GECCO_CIROOT=  1.000000000000000    
_SYM_CATION=  2.000000000000000    
_MON_A=FALSE
_MON_B=FALSE
GX1=-0.7760206338000000    
GY1= 0.7677730881999997    
GZ1=-0.6996066725801268    
GX2=-0.7760206338000000    
GY2=-0.7677730881999997    
GZ2=-0.6996066725801268    
GX3= 0.7760206338000000    
GY3= 0.7677730881999997    
GZ3=-0.6996066725801268    
GX4= 0.7760206338000000    
GY4=-0.7677730881999997    
GZ4=-0.6996066725801268    
GX5= -1.154404398600000    
GY5=  0.000000000000000    
GZ5= 0.5683301513198731    
GX6=  1.154404398600000    
GY6=  0.000000000000000    
GZ6= 0.5683301513198731    
GX7=  0.000000000000000    
GY7=  0.000000000000000    
GZ7=  1.555941028519873    
GX8= -1.440404607000000    
GY8=  1.463051517799999    
GZ8= -1.221760455380127    
GX9= -1.440404607000000    
GY9= -1.463051517799999    
GZ9= -1.221760455380127    
GX10=  1.440404607000000    
GY10=  1.463051517799999    
GZ10= -1.221760455380127    
GX11=  1.440404607000000    
GY11= -1.463051517799999    
GZ11= -1.221760455380127    
GX12= -2.203709083700000    
GY12=  0.000000000000000    
GZ12= 0.8820028354198731    
GX13=  2.203709083700000    
GY13=  0.000000000000000    
GZ13= 0.8820028354198731    
GX14=  0.000000000000000    
GY14= 0.9035398724000000    
GZ14=  2.192045879019873    
GX15=  0.000000000000000    
GY15=-0.9035398724000000    
GZ15=  2.192045879019873    
[Atoms] Angs
C     1    6        -0.7760206338        0.7677730882       -0.6996066726
C     2    6        -0.7760206338       -0.7677730882       -0.6996066726
C     3    6         0.7760206338        0.7677730882       -0.6996066726
C     4    6         0.7760206338       -0.7677730882       -0.6996066726
C     5    6        -1.1544043986        0.0000000000        0.5683301513
C     6    6         1.1544043986        0.0000000000        0.5683301513
C     7    6         0.0000000000        0.0000000000        1.5559410285
H     8    1        -1.4404046070        1.4630515178       -1.2217604554
H     9    1        -1.4404046070       -1.4630515178       -1.2217604554
H    10    1         1.4404046070        1.4630515178       -1.2217604554
H    11    1         1.4404046070       -1.4630515178       -1.2217604554
H    12    1        -2.2037090837        0.0000000000        0.8820028354
H    13    1         2.2037090837        0.0000000000        0.8820028354
H    14    1         0.0000000000        0.9035398724        2.1920458790
H    15    1         0.0000000000       -0.9035398724        2.1920458790
[GTO]
   1 0
 s    6  1.00
  0.3047524900D+04  0.1834737091D-02
  0.4573695200D+03  0.1403732293D-01
  0.1039486800D+03  0.6884262165D-01
  0.2921015500D+02  0.2321844388D+00
  0.9286663000D+01  0.4679413476D+00
  0.3163927000D+01  0.3623119882D+00
 s    3  1.00
  0.7868272300D+01 -0.1193324245D+00
  0.1881288500D+01 -0.1608541561D+00
  0.5442492600D+00  0.1143456443D+01
 s    1  1.00
  0.1687144800D+00  0.1000000000D+01
 p    3  1.00
  0.7868272300D+01  0.6899906693D-01
  0.1881288500D+01  0.3164239597D+00
  0.5442492600D+00  0.7443082892D+00
 p    1  1.00
  0.1687144800D+00  0.1000000000D+01
  
   2 0
 s    6  1.00
  0.3047524900D+04  0.1834737091D-02
  0.4573695200D+03  0.1403732293D-01
  0.1039486800D+03  0.6884262165D-01
  0.2921015500D+02  0.2321844388D+00
  0.9286663000D+01  0.4679413476D+00
  0.3163927000D+01  0.3623119882D+00
 s    3  1.00
  0.7868272300D+01 -0.1193324245D+00
  0.1881288500D+01 -0.1608541561D+00
  0.5442492600D+00  0.1143456443D+01
 s    1  1.00
  0.1687144800D+00  0.1000000000D+01
 p    3  1.00
  0.7868272300D+01  0.6899906693D-01
  0.1881288500D+01  0.3164239597D+00
  0.5442492600D+00  0.7443082892D+00
 p    1  1.00
  0.1687144800D+00  0.1000000000D+01
  
   3 0
 s    6  1.00
  0.3047524900D+04  0.1834737091D-02
  0.4573695200D+03  0.1403732293D-01
  0.1039486800D+03  0.6884262165D-01
  0.2921015500D+02  0.2321844388D+00
  0.9286663000D+01  0.4679413476D+00
  0.3163927000D+01  0.3623119882D+00
 s    3  1.00
  0.7868272300D+01 -0.1193324245D+00
  0.1881288500D+01 -0.1608541561D+00
  0.5442492600D+00  0.1143456443D+01
 s    1  1.00
  0.1687144800D+00  0.1000000000D+01
 p    3  1.00
  0.7868272300D+01  0.6899906693D-01
  0.1881288500D+01  0.3164239597D+00
  0.5442492600D+00  0.7443082892D+00
 p    1  1.00
  0.1687144800D+00  0.1000000000D+01
  
   4 0
 s    6  1.00
  0.3047524900D+04  0.1834737091D-02
  0.4573695200D+03  0.1403732293D-01
  0.1039486800D+03  0.6884262165D-01
  0.2921015500D+02  0.2321844388D+00
  0.9286663000D+01  0.4679413476D+00
  0.3163927000D+01  0.3623119882D+00
 s    3  1.00
  0.7868272300D+01 -0.1193324245D+00
  0.1881288500D+01 -0.1608541561D+00
  0.5442492600D+00  0.1143456443D+01
 s    1  1.00
  0.1687144800D+00  0.1000000000D+01
 p    3  1.00
  0.7868272300D+01  0.6899906693D-01
  0.1881288500D+01  0.3164239597D+00
  0.5442492600D+00  0.7443082892D+00
 p    1  1.00
  0.1687144800D+00  0.1000000000D+01
  
   5 0
 s    6  1.00
  0.3047524900D+04  0.1834737091D-02
  0.4573695200D+03  0.1403732293D-01
  0.1039486800D+03  0.6884262165D-01
  0.2921015500D+02  0.2321844388D+00
  0.9286663000D+01  0.4679413476D+00
  0.3163927000D+01  0.3623119882D+00
 s    3  1.00
  0.7868272300D+01 -0.1193324245D+00
  0.1881288500D+01 -0.1608541561D+00
  0.5442492600D+00  0.1143456443D+01
 s    1  1.00
  0.1687144800D+00  0.1000000000D+01
 p    3  1.00
  0.7868272300D+01  0.6899906693D-01
  0.1881288500D+01  0.3164239597D+00
  0.5442492600D+00  0.7443082892D+00
 p    1  1.00
  0.1687144800D+00  0.1000000000D+01
  
   6 0
 s    6  1.00
  0.3047524900D+04  0.1834737091D-02
  0.4573695200D+03  0.1403732293D-01
  0.1039486800D+03  0.6884262165D-01
  0.2921015500D+02  0.2321844388D+00
  0.9286663000D+01  0.4679413476D+00
  0.3163927000D+01  0.3623119882D+00
 s    3  1.00
  0.7868272300D+01 -0.1193324245D+00
  0.1881288500D+01 -0.1608541561D+00
  0.5442492600D+00  0.1143456443D+01
 s    1  1.00
  0.1687144800D+00  0.1000000000D+01
 p    3  1.00
  0.7868272300D+01  0.6899906693D-01
  0.1881288500D+01  0.3164239597D+00
  0.5442492600D+00  0.7443082892D+00
 p    1  1.00
  0.1687144800D+00  0.1000000000D+01
  
   7 0
 s    6  1.00
  0.3047524900D+04  0.1834737091D-02
  0.4573695200D+03  0.1403732293D-01
  0.1039486800D+03  0.6884262165D-01
  0.2921015500D+02  0.2321844388D+00
  0.9286663000D+01  0.4679413476D+00
  0.3163927000D+01  0.3623119882D+00
 s    3  1.00
  0.7868272300D+01 -0.1193324245D+00
  0.1881288500D+01 -0.1608541561D+00
  0.5442492600D+00  0.1143456443D+01
 s    1  1.00
  0.1687144800D+00  0.1000000000D+01
 p    3  1.00
  0.7868272300D+01  0.6899906693D-01
  0.1881288500D+01  0.3164239597D+00
  0.5442492600D+00  0.7443082892D+00
 p    1  1.00
  0.1687144800D+00  0.1000000000D+01
  
   8 0
 s    3  1.00
  0.1873113700D+02  0.3349460400D-01
  0.2825394400D+01  0.2347269500D+00
  0.6401216900D+00  0.8137573301D+00
 s    1  1.00
  0.1612777600D+00  0.1000000000D+01
  
   9 0
 s    3  1.00
  0.1873113700D+02  0.3349460400D-01
  0.2825394400D+01  0.2347269500D+00
  0.6401216900D+00  0.8137573301D+00
 s    1  1.00
  0.1612777600D+00  0.1000000000D+01
  
  10 0
 s    3  1.00
  0.1873113700D+02  0.3349460400D-01
  0.2825394400D+01  0.2347269500D+00
  0.6401216900D+00  0.8137573301D+00
 s    1  1.00
  0.1612777600D+00  0.1000000000D+01
  
  11 0
 s    3  1.00
  0.1873113700D+02  0.3349460400D-01
  0.2825394400D+01  0.2347269500D+00
  0.6401216900D+00  0.8137573301D+00
 s    1  1.00
  0.1612777600D+00  0.1000000000D+01
  
  12 0
 s    3  1.00
  0.1873113700D+02  0.3349460400D-01
  0.2825394400D+01  0.2347269500D+00
  0.6401216900D+00  0.8137573301D+00
 s    1  1.00
  0.1612777600D+00  0.1000000000D+01
  
  13 0
 s    3  1.00
  0.1873113700D+02  0.3349460400D-01
  0.2825394400D+01  0.2347269500D+00
  0.6401216900D+00  0.8137573301D+00
 s    1  1.00
  0.1612777600D+00  0.1000000000D+01
  
  14 0
 s    3  1.00
  0.1873113700D+02  0.3349460400D-01
  0.2825394400D+01  0.2347269500D+00
  0.6401216900D+00  0.8137573301D+00
 s    1  1.00
  0.1612777600D+00  0.1000000000D+01
  
  15 0
 s    3  1.00
  0.1873113700D+02  0.3349460400D-01
  0.2825394400D+01  0.2347269500D+00
  0.6401216900D+00  0.8137573301D+00
 s    1  1.00
  0.1612777600D+00  0.1000000000D+01


[MO]
 Sym=      1.1
 Ene=     -11.2361
 Spin= Alpha
 Occup=    2.000000
1 0.29767704260227
2 0.007418395339155
3 -0.000583018822428
4 0.000188087491291
5 -0.000355258929784
6 0.000280772876655
7 -0.000395461476081
8 0.000245219358901
9 0.000272736628761
10 0.29767704260227
11 0.007418395339155
12 -0.000583018822428
13 0.000188087491291
14 0.000355258929784
15 0.000280772876655
16 -0.000395461476081
17 -0.000245219358901
18 0.000272736628761
19 0.29767704260227
20 0.007418395339155
21 -0.000583018822428
22 -0.000188087491291
23 -0.000355258929784
24 0.000280772876655
25 0.000395461476081
26 0.000245219358901
27 0.000272736628761
28 0.29767704260227
29 0.007418395339155
30 -0.000583018822428
31 -0.000188087491291
32 0.000355258929784
33 0.000280772876655
34 0.000395461476081
35 -0.000245219358901
36 0.000272736628761
37 0.56439982015480
38 0.014628948102501
39 -0.009986689237038
40 0.000265800778284
41 0.0
42 -0.000603399062051
43 -0.001263487742016
44 0.0
45 0.000467892325682
46 0.56439982015480
47 0.014628948102501
48 -0.009986689237038
49 -0.000265800778284
50 0.0
51 -0.000603399062051
52 0.001263487742016
53 0.0
54 0.000467892325682
55 0.029000317501744
56 -0.000383227153252
57 0.005804937918564
58 0.0
59 0.0
60 0.000175571626754
61 0.0
62 0.0
63 -0.003548382875206
64 -0.000263623859686
65 0.000312512311786
66 -0.000263623859686
67 0.000312512311786
68 -0.000263623859686
69 0.000312512311786
70 -0.000263623859686
71 0.000312512311786
72 -0.000028393652001
73 0.001501006892355
74 -0.000028393652001
75 0.001501006892355
76 -0.000246368827971
77 0.000717559781016
78 -0.000246368827971
79 0.000717559781016
 Sym=      1.2
 Ene=     -11.2360
 Spin= Alpha
 Occup=    2.000000
1 0.21046896040776
2 0.006340906566659
3 -0.003020835696846
4 0.000082108691576
5 -0.000601943317877
6 0.000298137124791
7 -0.003606571369323
8 0.002028494058714
9 -0.000593692047891
10 0.21046896040776
11 0.006340906566659
12 -0.003020835696846
13 0.000082108691576
14 0.000601943317877
15 0.000298137124791
16 -0.003606571369323
17 -0.002028494058714
18 -0.000593692047891
19 -0.21046896040776
20 -0.006340906566659
21 0.003020835696846
22 0.000082108691576
23 0.000601943317877
24 -0.000298137124791
25 -0.003606571369323
26 -0.002028494058714
27 0.000593692047891
28 -0.21046896040776
29 -0.006340906566659
30 0.003020835696846
31 0.000082108691576
32 -0.000601943317877
33 -0.000298137124791
34 -0.003606571369323
35 0.002028494058714
36 0.000593692047891
37 0.63864045038893
38 0.017484455036476
39 -0.009499548498047
40 0.000505983218507
41 0.0
42 -0.000985494991797
43 -0.001799617713575
44 0.0
45 0.002038883566567
46 -0.63864045038893
47 -0.017484455036476
48 0.009499548498047
49 0.000505983218507
50 0.0
51 0.000985494991797
52 -0.001799617713575
53 0.0
54 -0.002038883566567
55 0.0
56 0.0
57 0.0
58 -0.000055739653968
59 0.0
60 0.0
61 -0.000843675877781
62 0.0
63 0.0
64 -0.000446139925499
65 -0.001250759277543
66 -0.000446139925499
67 -0.001250759277543
68 0.000446139925499
69 0.001250759277543
70 0.000446139925499
71 0.001250759277543
72 -0.000186286722218
73 0.000585377972387
74 0.000186286722218
75 -0.000585377972387
76 0.0
77 0.0
78 0.0
79 0.0
 Sym=      2.1
 Ene=     -11.2353
 Spin= Alpha
 Occup=    2.000000
1 0.39938727012587
2 0.010662914950730
3 -0.006425626561325
4 0.000350113446087
5 -0.000619011117347
6 0.000150976494803
7 -0.000182919239408
8 0.001467681627918
9 -0.002437037536923
10 0.39938727012587
11 0.010662914950730
12 -0.006425626561325
13 0.000350113446087
14 0.000619011117347
15 0.000150976494803
16 -0.000182919239408
17 -0.001467681627918
18 -0.002437037536923
19 0.39938727012587
20 0.010662914950730
21 -0.006425626561325
22 -0.000350113446087
23 -0.000619011117347
24 0.000150976494803
25 0.000182919239408
26 0.001467681627918
27 -0.002437037536923
28 0.39938727012587
29 0.010662914950730
30 -0.006425626561325
31 -0.000350113446087
32 0.000619011117347
33 0.000150976494803
34 0.000182919239408
35 -0.001467681627918
36 -0.002437037536923
37 -0.42073293313295
38 -0.011609225966268
39 0.013161960984390
40 -0.000315053445180
41 0.0
42 0.000437626765289
43 0.003032253067150
44 0.0
45 -0.002769239146544
46 -0.42073293313295
47 -0.011609225966268
48 0.013161960984390
49 0.000315053445180
50 0.0
51 0.000437626765289
52 -0.003032253067150
53 0.0
54 -0.002769239146544
55 -0.026121094808188
56 -0.000970432672113
57 -0.004030945331726
58 0.0
59 0.0
60 0.000288062868937
61 0.0
62 0.0
63 0.001655408010651
64 -0.000185827713256
65 0.000094715416963
66 -0.000185827713256
67 0.000094715416963
68 -0.000185827713256
69 0.000094715416963
70 -0.000185827713256
71 0.000094715416963
72 -0.000018279910117
73 -0.000203904936109
74 -0.000018279910117
75 -0.000203904936109
76 0.000089788264202
77 -0.000127794111990
78 0.000089788264202
79 -0.000127794111990
 Sym=      1.3
 Ene=     -11.2350
 Spin= Alpha
 Occup=    2.000000
1 0.49816506483961
2 0.013154116769192
3 -0.009841533013980
4 0.000135834644914
5 -0.000474347015181
6 0.000331023054697
7 0.000037109970384
8 0.003155637203961
9 -0.000840236212526
10 -0.49816506483961
11 -0.013154116769192
12 0.009841533013980
13 -0.000135834644914
14 -0.000474347015181
15 -0.000331023054697
16 -0.000037109970384
17 0.003155637203961
18 0.000840236212526
19 0.49816506483961
20 0.013154116769192
21 -0.009841533013980
22 -0.000135834644914
23 -0.000474347015181
24 0.000331023054697
25 -0.000037109970384
26 0.003155637203961
27 -0.000840236212526
28 -0.49816506483961
29 -0.013154116769192
30 0.009841533013980
31 0.000135834644914
32 -0.000474347015181
33 -0.000331023054697
34 0.000037109970384
35 0.003155637203961
36 0.000840236212526
37 0.0
38 0.0
39 0.0
40 0.0
41 0.000037284888932
42 0.0
43 0.0
44 0.001477175899320
45 0.0
46 0.0
47 0.0
48 0.0
49 0.0
50 0.000037284888932
51 0.0
52 0.0
53 0.001477175899320
54 0.0
55 0.0
56 0.0
57 0.0
58 0.0
59 -0.000187609804180
60 0.0
61 0.0
62 0.001093075122529
63 0.0
64 -0.000069609158833
65 0.000639342811480
66 0.000069609158833
67 -0.000639342811480
68 -0.000069609158833
69 0.000639342811480
70 0.000069609158833
71 -0.000639342811480
72 0.0
73 0.0
74 0.0
75 0.0
76 -0.000109795367072
77 -0.000774191966339
78 0.000109795367072
79 0.000774191966339
 Sym=      2.2
 Ene=     -11.2349
 Spin= Alpha
 Occup=    2.000000
1 0.45169200711864
2 0.012973665937178
3 -0.014003576158604
4 0.000012737416500
5 -0.000893387038722
6 0.000288152641020
7 -0.004198851633265
8 0.003367230339036
9 -0.004433581863303
10 0.45169200711864
11 0.012973665937178
12 -0.014003576158604
13 0.000012737416500
14 0.000893387038722
15 0.000288152641020
16 -0.004198851633265
17 -0.003367230339036
18 -0.004433581863303
19 -0.45169200711864
20 -0.012973665937178
21 0.014003576158604
22 0.000012737416500
23 0.000893387038722
24 -0.000288152641020
25 -0.004198851633265
26 -0.003367230339036
27 0.004433581863303
28 -0.45169200711864
29 -0.012973665937178
30 0.014003576158604
31 0.000012737416500
32 -0.000893387038722
33 -0.000288152641020
34 -0.004198851633265
35 0.003367230339036
36 0.004433581863303
37 -0.29759061564890
38 -0.008129916916334
39 0.014731871272478
40 -0.000151048415655
41 0.0
42 -0.000118588307541
43 0.003955388931536
44 0.0
45 -0.003390394263391
46 0.29759061564890
47 0.008129916916334
48 -0.014731871272478
49 -0.000151048415655
50 0.0
51 0.000118588307541
52 0.003955388931536
53 0.0
54 0.003390394263391
55 0.0
56 0.0
57 0.0
58 0.000369811788944
59 0.0
60 0.0
61 0.001244686294897
62 0.0
63 0.0
64 -0.000295280057595
65 -0.000952599829656
66 -0.000295280057595
67 -0.000952599829656
68 0.000295280057595
69 0.000952599829656
70 0.000295280057595
71 0.000952599829656
72 -0.000057639362667
73 0.000082211805659
74 0.000057639362667
75 -0.000082211805659
76 0.0
77 0.0
78 0.0
79 0.0
 Sym=      1.4
 Ene=     -11.2345
 Spin= Alpha
 Occup=    2.000000
1 0.49826700035494
2 0.013921889981799
3 -0.019886313413521
4 0.000078004545248
5 -0.000558207024065
6 0.000423206886154
7 -0.004287806922172
8 0.005850196977025
9 -0.002034759568897
10 -0.49826700035494
11 -0.013921889981799
12 0.019886313413521
13 -0.000078004545248
14 -0.000558207024065
15 -0.000423206886154
16 0.004287806922172
17 0.005850196977025
18 0.002034759568897
19 -0.49826700035494
20 -0.013921889981799
21 0.019886313413521
22 0.000078004545248
23 0.000558207024065
24 -0.000423206886154
25 -0.004287806922172
26 -0.005850196977025
27 0.002034759568897
28 0.49826700035494
29 0.013921889981799
30 -0.019886313413521
31 -0.000078004545248
32 0.000558207024065
33 0.000423206886154
34 0.004287806922172
35 -0.005850196977025
36 -0.002034759568897
37 0.0
38 0.0
39 0.0
40 0.0
41 0.000322525249163
42 0.0
43 0.0
44 0.001943872120215
45 0.0
46 0.0
47 0.0
48 0.0
49 0.0
50 -0.000322525249163
51 0.0
52 0.0
53 -0.001943872120215
54 0.0
55 0.0
56 0.0
57 0.0
58 0.0
59 0.0
60 0.0
61 0.0
62 0.0
63 0.0
64 0.000026967689311
65 -0.000303606144297
66 -0.000026967689311
67 0.000303606144297
68 -0.000026967689311
69 0.000303606144297
70 0.000026967689311
71 -0.000303606144297
72 0.0
73 0.0
74 0.0
75 0.0
76 0.0
77 0.0
78 0.0
79 0.0
 Sym=      3.1
 Ene=     -11.2248
 Spin= Alpha
 Occup=    2.000000
1 0.001735325906591
2 -0.000350480634721
3 0.000378510542420
4 -0.000025748172873
5 0.000055036120141
6 -0.000095605258040
7 -0.000111777087125
8 -0.000104375780506
9 0.000175049093768
10 0.001735325906591
11 -0.000350480634721
12 0.000378510542420
13 -0.000025748172873
14 -0.000055036120141
15 -0.000095605258040
16 -0.000111777087125
17 0.000104375780506
18 0.000175049093768
19 0.001735325906591
20 -0.000350480634721
21 0.000378510542420
22 0.000025748172873
23 0.000055036120141
24 -0.000095605258040
25 0.000111777087125
26 -0.000104375780506
27 0.000175049093768
28 0.001735325906591
29 -0.000350480634721
30 0.000378510542420
31 0.000025748172873
32 -0.000055036120141
33 -0.000095605258040
34 0.000111777087125
35 0.000104375780506
36 0.000175049093768
37 -0.027651436268383
38 -0.001110164169195
39 0.005137823418451
40 -0.000026262667508
41 0.0
42 0.000044315181646
43 0.002088547175234
44 0.0
45 0.002028661269071
46 -0.027651436268383
47 -0.001110164169195
48 0.005137823418451
49 0.000026262667508
50 0.0
51 0.000044315181646
52 -0.002088547175234
53 0.0
54 0.002028661269071
55 0.99556112236756
56 0.026467424677015
57 -0.021620086524865
58 0.0
59 0.0
60 -0.000241196163911
61 0.0
62 0.0
63 0.002388324342456
64 -0.000006695246404
65 0.000015493804052
66 -0.000006695246404
67 0.000015493804052
68 -0.000006695246404
69 0.000015493804052
70 -0.000006695246404
71 0.000015493804052
72 -0.000147794178462
73 -0.000026773304483
74 -0.000147794178462
75 -0.000026773304483
76 0.000202929512017
77 0.003038957212194
78 0.000202929512017
79 0.003038957212194
 Sym=      4.1
 Ene=      -1.2462
 Spin= Alpha
 Occup=    2.000000
1 -0.086665825862027
2 0.16189040581722
3 0.085656893480609
4 0.034574040845581
5 -0.069639656503785
6 0.036165869260903
7 0.012859795806129
8 -0.017819685726221
9 0.011232648166875
10 -0.086665825862027
11 0.16189040581722
12 0.085656893480609
13 0.034574040845581
14 0.069639656503785
15 0.036165869260903
16 0.012859795806129
17 0.017819685726221
18 0.011232648166875
19 -0.086665825862027
20 0.16189040581722
21 0.085656893480609
22 -0.034574040845581
23 -0.069639656503785
24 0.036165869260903
25 -0.012859795806129
26 -0.017819685726221
27 0.011232648166875
28 -0.086665825862027
29 0.16189040581722
30 0.085656893480609
31 -0.034574040845581
32 0.069639656503785
33 0.036165869260903
34 -0.012859795806129
35 0.017819685726221
36 0.011232648166875
37 -0.079696010206490
38 0.14706136212586
39 0.10286609988217
40 0.050299449472025
41 0.0
42 -0.054174591468160
43 0.020453392638768
44 0.0
45 -0.008266348017948
46 -0.079696010206490
47 0.14706136212586
48 0.10286609988217
49 -0.050299449472025
50 0.0
51 -0.054174591468160
52 -0.020453392638768
53 0.0
54 -0.008266348017948
55 -0.049486368599158