[Molden Format]
made by pyscf v[2.1.1]
[Atoms] (AU)
C   1   6     0.00009022141668     0.00008642430819    -0.00009399554713
C   2   6     2.81932430055170     0.00573244483394    -0.00623463814549
C   3   6    -0.00622320527762    -0.00100430080353    -2.91782200103479
C   4   6     2.81289997707564     0.00453082510247    -2.92392762171427
C   5   6     1.40657137948584     2.39299776375880     0.70279898487819
C   6   6     1.39691845996369     2.39139581994389    -3.62878445402289
C   7   6     1.39805542732473     4.24645480593628    -1.46365818804067
H   8   1    -1.30635137837090    -0.98671617141901     1.24485838778864
H   9   1     4.13512167069890    -0.97608691051868     1.23279500233879
H   10   1    -1.31785276551135    -0.98902660763246    -4.15634131263858
H   11   1     4.12290272481315    -0.97804449406452    -4.16848580515374
H   12   1     1.40941070005377     3.00887592861753     2.66390931410007
H   13   1     1.39156368386560     3.00570755491690    -5.59036681701750
H   14   1    -0.28980778416403     5.45254035680856    -1.46024364742635
H   15   1     3.08104867763450     5.45930927549250    -1.46790498493838
[GTO]
1 0
 s    6 1.00
             3047.5249  0.0018347001629433
             457.36951    0.01403730124668
             103.94869   0.068842606114048
             29.210155    0.23218442062076
              9.286663    0.46794134155879
              3.163927    0.36231203217765
 s    3 1.00
             7.8682724   -0.11933240861517
             1.8812885   -0.16085421161283
             0.5442493     1.1434564825515
 s    1 1.00
             0.1687144                   1
 p    3 1.00
             7.8682724   0.068999095584993
             1.8812885    0.31642397975315
             0.5442493    0.74430825237435
 p    1 1.00
             0.1687144                   1

2 0
 s    6 1.00
             3047.5249  0.0018347001629433
             457.36951    0.01403730124668
             103.94869   0.068842606114048
             29.210155    0.23218442062076
              9.286663    0.46794134155879
              3.163927    0.36231203217765
 s    3 1.00
             7.8682724   -0.11933240861517
             1.8812885   -0.16085421161283
             0.5442493     1.1434564825515
 s    1 1.00
             0.1687144                   1
 p    3 1.00
             7.8682724   0.068999095584993
             1.8812885    0.31642397975315
             0.5442493    0.74430825237435
 p    1 1.00
             0.1687144                   1

3 0
 s    6 1.00
             3047.5249  0.0018347001629433
             457.36951    0.01403730124668
             103.94869   0.068842606114048
             29.210155    0.23218442062076
              9.286663    0.46794134155879
              3.163927    0.36231203217765
 s    3 1.00
             7.8682724   -0.11933240861517
             1.8812885   -0.16085421161283
             0.5442493     1.1434564825515
 s    1 1.00
             0.1687144                   1
 p    3 1.00
             7.8682724   0.068999095584993
             1.8812885    0.31642397975315
             0.5442493    0.74430825237435
 p    1 1.00
             0.1687144                   1

4 0
 s    6 1.00
             3047.5249  0.0018347001629433
             457.36951    0.01403730124668
             103.94869   0.068842606114048
             29.210155    0.23218442062076
              9.286663    0.46794134155879
              3.163927    0.36231203217765
 s    3 1.00
             7.8682724   -0.11933240861517
             1.8812885   -0.16085421161283
             0.5442493     1.1434564825515
 s    1 1.00
             0.1687144                   1
 p    3 1.00
             7.8682724   0.068999095584993
             1.8812885    0.31642397975315
             0.5442493    0.74430825237435
 p    1 1.00
             0.1687144                   1

5 0
 s    6 1.00
             3047.5249  0.0018347001629433
             457.36951    0.01403730124668
             103.94869   0.068842606114048
             29.210155    0.23218442062076
              9.286663    0.46794134155879
              3.163927    0.36231203217765
 s    3 1.00
             7.8682724   -0.11933240861517
             1.8812885   -0.16085421161283
             0.5442493     1.1434564825515
 s    1 1.00
             0.1687144                   1
 p    3 1.00
             7.8682724   0.068999095584993
             1.8812885    0.31642397975315
             0.5442493    0.74430825237435
 p    1 1.00
             0.1687144                   1

6 0
 s    6 1.00
             3047.5249  0.0018347001629433
             457.36951    0.01403730124668
             103.94869   0.068842606114048
             29.210155    0.23218442062076
              9.286663    0.46794134155879
              3.163927    0.36231203217765
 s    3 1.00
             7.8682724   -0.11933240861517
             1.8812885   -0.16085421161283
             0.5442493     1.1434564825515
 s    1 1.00
             0.1687144                   1
 p    3 1.00
             7.8682724   0.068999095584993
             1.8812885    0.31642397975315
             0.5442493    0.74430825237435
 p    1 1.00
             0.1687144                   1

7 0
 s    6 1.00
             3047.5249  0.0018347001629433
             457.36951    0.01403730124668
             103.94869   0.068842606114048
             29.210155    0.23218442062076
              9.286663    0.46794134155879
              3.163927    0.36231203217765
 s    3 1.00
             7.8682724   -0.11933240861517
             1.8812885   -0.16085421161283
             0.5442493     1.1434564825515
 s    1 1.00
             0.1687144                   1
 p    3 1.00
             7.8682724   0.068999095584993
             1.8812885    0.31642397975315
             0.5442493    0.74430825237435
 p    1 1.00
             0.1687144                   1

8 0
 s    3 1.00
             18.731137    0.03349459952309
             2.8253937    0.23472694665786
             0.6401217    0.81375731841339
 s    1 1.00
             0.1612778                   1

9 0
 s    3 1.00
             18.731137    0.03349459952309
             2.8253937    0.23472694665786
             0.6401217    0.81375731841339
 s    1 1.00
             0.1612778                   1

10 0
 s    3 1.00
             18.731137    0.03349459952309
             2.8253937    0.23472694665786
             0.6401217    0.81375731841339
 s    1 1.00
             0.1612778                   1

11 0
 s    3 1.00
             18.731137    0.03349459952309
             2.8253937    0.23472694665786
             0.6401217    0.81375731841339
 s    1 1.00
             0.1612778                   1

12 0
 s    3 1.00
             18.731137    0.03349459952309
             2.8253937    0.23472694665786
             0.6401217    0.81375731841339
 s    1 1.00
             0.1612778                   1

13 0
 s    3 1.00
             18.731137    0.03349459952309
             2.8253937    0.23472694665786
             0.6401217    0.81375731841339
 s    1 1.00
             0.1612778                   1

14 0
 s    3 1.00
             18.731137    0.03349459952309
             2.8253937    0.23472694665786
             0.6401217    0.81375731841339
 s    1 1.00
             0.1612778                   1

15 0
 s    3 1.00
             18.731137    0.03349459952309
             2.8253937    0.23472694665786
             0.6401217    0.81375731841339
 s    1 1.00
             0.1612778                   1
[MO]
 Sym= A
 Ene=    -11.23081443
 Spin= Alpha
 Occup=    2.00000
   1      0.32444622008328
   2    0.0082603649356704
   3    -0.0010765540645507
   4    0.00041190608071956
   5    0.0003011885932625
   6    -0.00023695258305002
   7    -0.00046687583037222
   8    4.4943884073253e-05
   9    0.00054179192081889
  10      0.32557991833021
  11    0.0082921676878675
  12    -0.0011193327011192
  13    -0.00041549718576742
  14    0.00030051291478696
  15    -0.00023539106746625
  16    0.00048281909389977
  17    4.1978592861628e-05
  18    0.00054726998801744
  19      0.31325264171032
  20     0.007918406181238
  21    -0.00088170633131905
  22    0.00038152614050991
  23    0.00028700274549193
  24    0.00023175980863314
  25    -0.00035772645012073
  26    0.00010126564794539
  27    -0.00035281433347959
  28      0.31292444008104
  29    0.0079080177769179
  30    -0.00085563012890508
  31    -0.00038118329900851
  32    0.00028508449479602
  33    0.00023334239522757
  34    0.00034723585994778
  35    0.00010617709829149
  36    -0.00034660627369574
  37      0.55380679449727
  38     0.014385851626563
  39    -0.0093309943227075
  40    8.1592528904856e-07
  41    -0.00061721980166189
  42    -0.0002772690059987
  43    4.2880555054669e-06
  44    0.00029338456337698
  45     0.001060105817137
  46       0.5266421847763
  47     0.013637960889105
  48    -0.008997734636019
  49    1.5012863216387e-06
  50    -0.0005700534744323
  51    0.00025541454296472
  52    -3.8909486036166e-06
  53    0.00022314698164102
  54    -0.0010050567174522
  55     0.030371056232115
  56    -0.00035605202586538
  57    0.0055222906266918
  58    -4.6901194277871e-07
  59    0.00020158371849211
  60    -2.7843906544608e-07
  61    7.3319553558618e-06
  62     -0.00348047006368
  63    1.6220202210608e-05
  64    -0.00028736815510409
  65    0.0002355965968653
  66    -0.00028741020900904
  67    0.00023495326001079
  68    -0.00026486298295099
  69    0.00030241514979681
  70    -0.00026488978879887
  71    0.00030422968941773
  72    -3.0296399610816e-05
  73    0.0015331710161948
  74    -2.1106826454578e-05
  75    0.0015057730147491
  76    -0.00023183788381224
  77    0.00073852932628785
  78    -0.00023189923014803
  79    0.00073795381350402
 Sym= A
 Ene=     -11.2306886
 Spin= Alpha
 Occup=    2.00000
   1     -0.22010653483689
   2    -0.0067838124664812
   3    0.0038555608582107
   4    -0.00063124037598563
   5    -0.00030161978109292
   6    7.1147491671536e-05
   7    0.0023900864024533
   8    0.00095956982518078
   9    -0.0039472255150005
  10     -0.22112543618826
  11    -0.0068113932171832
  12    0.0038808207922293
  13    0.00063386037298864
  14    -0.0002998149395304
  15    6.8647313681645e-05
  16    -0.002418807747082
  17    0.00095218595115501
  18    -0.0039377299792482
  19      0.23460138762904
  20    0.0071514158290569
  21    -0.0039050710201917
  22    0.00064904049905734
  23    0.00031523872302043
  24    7.8217724548001e-05
  25    -0.002428686149119
  26    -0.00095575748296533
  27    -0.0039555067067667
  28      0.23394310019953
  29    0.0071338334680132
  30    -0.0038936701698411
  31    -0.00064930319834272
  32    0.00031227233407817
  33    8.0882960725538e-05
  34    0.0024107917652635
  35    -0.00094504058886678
  36     -0.00396816973728
  37      -0.6140035373168
  38    -0.016917213113418
  39    0.0084296698035067
  40    -9.0083249055416e-07
  41    0.0010172660975729
  42    0.00050110381852772
  43    -1.4739816660037e-06
  44    -0.0018332613774274
  45    -0.0015490218374134
  46      0.63936058639295
  47     0.017576195840061
  48    -0.0088729866240911
  49    3.3186367530564e-06
  50    -0.0010446806025845
  51    0.00051465662104764
  52    -8.2786253765838e-06
  53    0.0018496779978152
  54    -0.0016035638569229
  55    0.00072327066461094
  56    -6.8954227963296e-06
  57    0.00012936649955808
  58    9.3342845990805e-08
  59    4.2945013846327e-06
  60    -2.2186540701657e-05
  61    -2.4882612733633e-06
  62    -8.10129334315e-05
  63    -0.00076461872955543
  64    0.00046725538789753
  65    0.0014205524495003
  66    0.0004672442877347
  67    0.0014193254930097
  68    -0.00047940899700986
  69    -0.0014071830429476
  70    -0.00047935397091378
  71    -0.001408364178423
  72    0.00020018948670242
  73    -0.00055617751063528
  74    -0.0002013372580442
  75    0.00062556189538893
  76    -5.4640739854848e-06
  77    1.6245117248598e-05
  78    -5.254276671363e-06
  79    1.7606456475938e-05
 Sym= A
 Ene=    -11.22992656
 Spin= Alpha
 Occup=    2.00000
   1     -0.38522507253888
   2    -0.010497978025897
   3    0.0067416023584888
   4    -0.00063030901254242
   5    -0.00015728145020744
   6    0.0003625551141512
   7    0.0015562577570743
   8     0.002646677003398
   9    -0.00023962089669663
  10     -0.38875160469774
  11     -0.01059505450958
  12    0.0068535736913633
  13    0.00063671314824054
  14    -0.00015771254919371
  15    0.00036061688573302
  16    -0.001602962394069
  17    0.0026519848617089
  18    -0.00024839832781578
  19     -0.37774123069192
  20    -0.010279527098032
  21    0.0065096796745166
  22    -0.00061600817394723
  23    -0.00015319018127521
  24    -0.00036020343710747
  25    0.0015093575258606
  26    0.0025563512044366
  27    0.00016360383855512
  28     -0.37795240039755
  29    -0.010282231840038
  30    0.0064753364960928
  31    0.00061488887860305
  32    -0.00015043093617169
  33    -0.00036302470690389
  34    -0.0015089073278725
  35    0.0025450940206208
  36    0.00015426076747874
  37      0.45506976444922
  38     0.012629229950596
  39    -0.014501977432728
  40    -4.3304802973505e-07
  41    -0.000508317887553
  42    -0.00034803855950364
  43    -4.8246468636531e-06
  44    0.0030395082452333
  45     0.003384585385984
  46      0.44682350129996
  47     0.012402404129116
  48    -0.014143096686847
  49    2.3082602892264e-06
  50    -0.00050706445791308
  51    0.0003434281316636
  52    -1.2432798115645e-05
  53    0.0029517292452701
  54    -0.0032925203877216
  55     0.030662684925782
  56    0.0010304317862241
  57    0.0045708851410658
  58    8.8284450346243e-07
  59    -0.00026929127922857
  60    4.2197888516412e-06
  61    2.0171914394929e-06
  62    -0.0020229270365381
  63    1.4803497303847e-05
  64    0.00017383675551111
  65    -2.3161738117917e-05
  66    0.00017401280169397
  67    -2.3510476091861e-05
  68    0.00016878500147892
  69    -3.9726056274611e-05
  70    0.00016903202525522
  71    -4.4138578060613e-05
  72    1.1866598383162e-05
  73    0.0002185655623382
  74    1.1198643619347e-05
  75    0.0002199425058058
  76    -0.00010543928970471
  77    0.00020210574926432
  78    -0.0001050432216367
  79    0.0002050548413318
 Sym= A
 Ene=    -11.22959868
 Spin= Alpha
 Occup=    2.00000
   1      -0.4891367191757
   2    -0.013042163545245
   3     0.010160935555595
   4    -0.00051754757390045
   5    -0.00035239935683103
   6    0.00013388831108769
   7    0.0033376269713644
   8    0.00076197359701972
   9    0.00011363049412243
  10      0.51671802736784
  11     0.013849918264026
  12    -0.011100923585335
  13    -0.00057550223748994
  14    0.00036921580335639
  15    -0.00012948033055866
  16    0.0035639578100433
  17    -0.0010488412634003
  18    0.00014770209819093
  19      -0.5085729320483
  20    -0.013616669135284
  21     0.010699913370473
  22    -0.00056427369226437
  23    -0.00036331621734047
  24    -0.000129111691484
  25    0.0034378102895222
  26    0.0010299986909537
  27    5.652722736356e-05
  28      0.47695562991345
  29     0.012699989680747
  30    -0.0096979303743961
  31    -0.00050279856486599
  32    0.00034024784616347
  33    0.00012974557114589
  34    0.0032041879823468
  35    -0.00069257495783936
  36    0.0002078575527975
  37    -0.010638592539767
  38    -0.00029180789880546
  39    0.00051068248874442
  40    3.5545466468749e-05
  41    -1.6892840093205e-06
  42    5.989270604932e-06
  43    0.0015157110434927
  44     -0.00011904002719
  45    -0.00014007805767571
  46     0.012184572134507
  47    0.00033560224704936
  48    -0.0005671232400192
  49    2.8984334637641e-05
  50    5.4316951073578e-08
  51    7.3196197077705e-06
  52     0.001474470796628
  53    0.00013829012474201
  54    -0.00015422809704129
  55    5.6075640270056e-05
  56    2.5239032795088e-06
  57    7.7104443142012e-06
  58    -0.00017951583810251
  59    -1.0604386349416e-06
  60    -1.2409981327634e-05
  61    0.0010967325966975
  62    -7.6649070214228e-07
  63    -4.4599443355332e-05
  64    4.9825402035859e-05
  65    -0.00064692176023957
  66    -6.6477854888168e-05
  67    0.00058269853428693
  68    6.8258975174659e-05
  69    -0.00059121964017376
  70    -4.9540966268643e-05
  71    0.00065470893112485
  72    -1.4189535932664e-06
  73    3.5395567966449e-06
  74    1.4850082892563e-06
  75    -3.9469132996367e-06
  76    0.00010857825224071
  77    0.00079160269185006
  78    -0.0001088299821731
  79    -0.00079135169240532
 Sym= A
 Ene=    -11.22955012
 Spin= Alpha
 Occup=    2.00000
   1     -0.45474893815862
   2    -0.013221728752355
   3     0.014685697832623
   4    -0.00089880709166318
   5    -0.00031435302914257
   6    7.4339675902723e-07
   7    0.0035288570345301
   8    0.0046394062680907
   9    -0.0041976573823353
  10     -0.42199416262071
  11    -0.012348322223755
  12      0.01402292115185
  13    0.00086465380582762
  14    -0.00028761831139103
  15    -1.1718239400825e-05
  16    -0.0033486977241971
  17    0.0045706045051837
  18    -0.0041932495794529
  19      0.43042235589355
  20     0.012574751673987
  21    -0.014128387203737
  22    0.00087708840059966
  23    0.00029462736911965
  24    -3.4689674963577e-06
  25    -0.0033525800064897
  26    -0.0046387102321639
  27    -0.0041868979759662
  28      0.46512385621491
  29     0.013503152462233
  30    -0.014872945209479
  31    -0.00091610581888274
  32    0.00031603706770955
  33    9.4477425345256e-06
  34    0.0035936585912707
  35    -0.004688025875685
  36    -0.0042091262737623
  37      0.31759536603303
  38    0.0087255204697743
  39    -0.015550031559586
  40    2.5558474602568e-07
  41    5.761924198097e-05
  42    -0.00018125870401015
  43    5.0312138989337e-05
  44    0.0037131082727265
  45     0.004161843153097
  46     -0.32532600388281
  47    -0.0089436713576821
  48     0.015823969300146
  49    1.0864132109663e-06
  50    -4.9044446660939e-05
  51    -0.00018767733814248
  52    6.9122601245099e-05
  53    -0.0037729944429388
  54    0.0042337220241305
  55    -0.00027962893882907
  56    -1.1847102155234e-05
  57    -3.9449164505039e-05
  58    -5.2576510016261e-06
  59    3.3891808179232e-06
  60    0.00037726922970289
  61    4.006074383927e-05
  62    1.6157690282814e-05
  63    0.0012281279118453
  64    0.00027303798266678
  65    0.00095654559398272
  66    0.00026896232683568
  67    0.00099922759807677
  68    -0.00027372890993255
  69    -0.00099674393156437
  70    -0.00027763558277606
  71    -0.00095543773499264
  72    4.9005588222896e-05
  73    -0.00011662930944484
  74    -4.9249945652977e-05
  75    0.00011793415549125
  76    4.4444424808187e-06
  77    2.5921558986347e-05
  78    -2.988809507913e-06
  79    -2.7748024117189e-05
 Sym= A
 Ene=    -11.22907583
 Spin= Alpha
 Occup=    2.00000
   1      0.49466176164437
   2     0.014008212231159
   3    -0.021032741073466
   4    0.00063243942001203
   5    0.0004481764143531
   6    -9.4330838807383e-05
   7    -0.0062442917531953
   8    -0.0021524000086473
   9    0.0044736949506792
  10     -0.49167987270507
  11    -0.013925598739771
  12     0.020970493288257
  13    0.00062942776707058
  14    -0.00044378864840595
  15    9.0135096016026e-05
  16    -0.0062566395662545
  17    0.0021064383165081
  18    -0.0044326763178101
  19     -0.50307939355115
  20    -0.014233434206608
  21     0.021222824394782
  22    -0.00064127928704721
  23    -0.00045456296752977
  24    -9.2362444311678e-05
  25    0.0063269406296367
  26    0.0021654772264086
  27    0.0044428934301242
  28      0.50351377635132
  29     0.014241491273253
  30    -0.021205006146762
  31    -0.0006426129214306
  32    0.00045200784379732
  33    9.6600035438029e-05
  34    0.0063113160132314
  35    -0.0021358227259223
  36    -0.0044589758586467
  37    -0.00065840847227201
  38    -1.8934762867585e-05
  39    3.5523624320995e-05
  40    -0.00031778897654755
  41    -5.280645012761e-07
  42    1.1704081258213e-06
  43    -0.0019595684137777
  44    -1.3020631306646e-05
  45    -5.1394602842745e-06
  46    -3.0625197905485e-05
  47    -1.7354360979781e-06
  48    -3.5658596972042e-06
  49    0.00031844937187105
  50    1.2476391309246e-06
  51    -8.8331622439274e-07
  52    0.0019896605700171
  53    4.3424774838091e-06
  54    -5.4648119159512e-06
  55    -2.8457515372487e-05
  56    -2.0116105054736e-06
  57    -3.0147625383553e-06
  58    -1.8177785547905e-06
  59    5.913977350432e-07
  60    -4.9232923750135e-07
  61    1.1165500007154e-05
  62    4.7953482107551e-07
  63    -1.4901799704289e-06
  64    4.2528284379543e-05
  65    -0.00036943200616566
  66    -4.4428751456797e-05
  67    0.00036680841525944
  68    -4.2373235082728e-05
  69    0.00035715889799069
  70    4.2294669282164e-05
  71    -0.0003535145761547
  72    -2.0053432236195e-07
  73    7.0653001983587e-07
  74    1.5326491455008e-08
  75    2.4694614886607e-07
  76    1.097372969609e-06
  77    8.2740958693888e-06
  78    -1.1140610891302e-06
  79    -7.7969747322862e-06
 Sym= A
 Ene=     -11.2200392
 Spin= Alpha
 Occup=    2.00000
   1    0.0019660793375229
   2    -0.00034871347952247
   3    0.00039141235580198
   4    -4.9094735383989e-05
   5    -8.9669725754993e-05
   6    2.8511470430676e-05
   7    0.00011211869313478
   8    0.00018129925590217
   9    0.00010999252533928
  10    0.0019652130252073
  11    -0.00034869665045688
  12    0.00039128038247097
  13    4.9579876027035e-05
  14    -8.9469250882768e-05
  15    2.8296529410963e-05
  16    -0.00011242464370474
  17    0.00018082557115745
  18    0.00011056659307108
  19    0.0019679234090679
  20    -0.0003486381289208
  21    0.00039106815876235
  22    -4.9223221208098e-05
  23    -8.9695380678996e-05
  24    -2.8231689662993e-05
  25    0.00011171089401384
  26    0.00018115240069358
  27    -0.00011064376119761
  28    0.0019679220933785
  29    -0.00034865725294955
  30    0.00039114573267216
  31    4.9456897153924e-05
  32    -8.9513849565262e-05
  33    -2.8441958181952e-05
  34    -0.0001128222561994
  35    0.00018073241919935
  36    -0.00011006464779468
  37    -0.030557132843756
  38    -0.0011935178578126
  39    0.0052509495365476
  40    9.0143630461753e-09
  41    3.7050896175026e-05
  42    3.8411139897613e-05
  43    -8.7687407866798e-06
  44    0.0020884838654007
  45    -0.0020845780139583
  46    -0.030566871518913
  47    -0.0011938085465177
  48    0.0052511198902882
  49    -1.6095680026756e-07
  50    3.7060160138621e-05
  51    -3.8455117835671e-05
  52    4.258787197713e-07
  53    0.0020897236672761
  54      0.00208312639098
  55      0.99537470553235
  56     0.026587895514679
  57    -0.021964478954617
  58    4.2016481369266e-07
  59    -0.00022510760351002
  60    1.2661550611997e-07
  61    -4.5535297477189e-06
  62    0.0023497213008201
  63    -1.0163247771944e-06
  64    -5.383729414705e-06
  65    1.9210008492144e-05
  66    -5.3722278563924e-06
  67    1.925503226121e-05
  68    -5.3698728210056e-06
  69    1.9327723051001e-05
  70    -5.3857826944607e-06
  71    1.9294778195215e-05
  72    -0.00015313405198021
  73    -5.8589642627994e-05
  74    -0.00015312299095171
  75    -5.8518710524535e-05
  76    0.00020331004101203
  77    0.0031008419229682
  78    0.00020327976705099
  79     0.003100759767965
 Sym= A
 Ene=    -1.263727401
 Spin= Alpha
 Occup=    2.00000
   1     -0.08845416431253
   2      0.16469251561078
   3     0.084809614169061
   4     0.074080984371909
   5     0.036791403948182
   6    -0.035902765088295
   7     0.017804780563114
   8     0.011712243630194
   9    -0.012882777933225
  10    -0.088457303678969
  11      0.16469776197837
  12     0.084824744789448
  13    -0.074384676735895
  14     0.036497202912531
  15    -0.035579663444135
  16    -0.017917501437138
  17     0.011647648260691
  18    -0.012805434662053
  19    -0.088457737410936
  20      0.16469440579426
  21     0.084839180544309
  22     0.074239086562412
  23     0.036816394278628
  24     0.035551068363926
  25     0.017872834736359
  26     0.011733208994834
  27     0.012800534943986
  28    -0.088453577923225
  29      0.16468900578828
  30     0.084817294705299
  31     -0.07422639794346
  32     0.036517416385693
  33     0.035876193816621
  34    -0.017848336046432
  35     0.011653651418746
  36     0.012876750509017
  37    -0.078208355940402
  38      0.14456282018009
  39     0.094638205698348
  40    6.4038332644695e-07
  41    -0.056321110605865
  42    -0.050184790718619
  43    -3.049075145927e-05
  44    -0.0066610596056389
  45    -0.018639926077055
  46    -0.078197970589833
  47      0.14454593655246
  48     0.094615437514231
  49    0.00022198703495271
  50    -0.056273400500556
  51     0.050225919063454
  52    5.7560054795823e-05
  53    -0.0066415381218161
  54     0.018637354200018
  55    -0.046967652069916
  56     0.094874986345232
  57     0.029183697077938
  58    9.4890452209583e-05
  59    -0.047812161383038
  60    1.9594809514921e-05
  61    -4.1355557194137e-05
  62     0.020724345270007
  63    -7.4871227208906e-06
  64     0.025396119432963
  65     0.010091682221074
  66      0.02539693889576
  67     0.010094963980142
  68     0.025397204530643
  69     0.010095584280326
  70     0.025396143063289
  71     0.010090511055506
  72     0.023317089299265
  73    0.0043157733540823
  74     0.023314098465459
  75    0.0043131891902075
  76     0.016124696736892
  77    -0.0075958070103152
  78     0.016124357252682
  79    -0.0075961894389121
 Sym= A
 Ene=    -1.061553288
 Spin= Alpha
 Occup=    2.00000
   1    -0.079959621871155
   2        0.150226534803
   3      0.14286757309607
   4     0.080383814281101
   5     0.047940311038938
   6     0.058435315678907
   7     0.024834358956212
   8      0.01586281923556
   9    -0.021336864103245
  10    -0.079968573097076
  11      0.15024445620494
  12      0.14288616039846
  13    -0.080319005969567
  14     0.047627587300098
  15     0.058780994543022
  16    -0.024992239854755
  17     0.015765826709385
  18    -0.021229452984893
  19     0.079979488283347
  20     -0.15026394815336
  21     -0.14290363965679
  22    -0.080139417613786
  23    -0.047894909376417
  24     0.058820032039566
  25    -0.024930052916631
  26    -0.015882005169436
  27    -0.021215339861486
  28     0.079966199977025
  29      -0.1502381981014
  30      -0.1428796437554
  31     0.080582595383584
  32     -0.04756272289269
  33     0.058474625312403
  34     0.024895248631487
  35    -0.015779924062378
  36    -0.021324676133879
  37     -0.10320250110171
  38      0.20137097726209
  39      0.14193803406909
  40    0.00016174619763491
  41    -0.088086105785046
  42    -0.0063708221517967
  43    4.5006020802703e-05
  44    -0.014208075740787
  45    0.0092467122747342
  46      0.10319643816419
  47     -0.20135876195098
  48     -0.14192824820569
  49    -0.00018517194488887
  50     0.088079924886766
  51    -0.0064418100677963
  52    -1.1048224546765e-05
  53     0.014214707072715
  54    0.0092341176436756
  55    -2.3575925851555e-06
  56    4.344351034716e-06
  57    4.6816227356832e-06
  58    0.00013362987185654
  59    2.1873236953571e-05
  60     0.060079731940009
  61    2.5153865609858e-05
  62    3.4052354394697e-06
  63      0.01017068793517
  64      0.03933531097041
  65     0.018905009759928
  66     0.039336371515098
  67     0.018904467935778
  68    -0.039344803828623
  69    -0.018906217871943
  70    -0.039343478714626
  71    -0.018906958857737
  72     0.053690468138414
  73    0.0080399004877504
  74     -0.05368741969847
  75    -0.0080393016169843
  76    2.2805125122071e-06
  77    1.0107163039916e-06
  78    6.9844531320758e-07
  79    -6.2528356217236e-07
 Sym= A
 Ene=   -0.9962825361
 Spin= Alpha
 Occup=    2.00000
   1     0.049649315807537
   2    -0.092332315849925
   3     -0.10333338209247
   4    -0.037085357913577
   5     0.037791881731964
   6     0.030281149104404
   7    -0.018934079295328
   8    -0.010727620302516
   9    0.0079997943375371
  10     0.049652258368594
  11    -0.092338394189578
  12     -0.10335011918168
  13     0.037064031237486
  14      0.03794246254322
  15     0.030121849896503
  16     0.019016493952078
  17    -0.010657200319753
  18    0.0079214052129508
  19     0.049645121114742
  20    -0.092326546125556
  21     -0.10332719220761
  22    -0.037216024231111
  23     0.037777944057163
  24    -0.030151921893216
  25    -0.018964251934096
  26    -0.010731649177717
  27    -0.0079055103140525
  28     0.049649067851105
  29    -0.092333724481485
  30     -0.10332069016902
  31     0.036933816355744
  32     0.037919104830894
  33    -0.030316096006144
  34     0.018967223414576
  35    -0.010650411504081
  36    -0.0079839678981765
  37    -0.065308184383918
  38      0.11748134487121
  39      0.15845813089913
  40    -0.00032421893236077
  41     0.098763408181623
  42    -0.055835023633578
  43    -4.7913586331972e-05
  44     -0.01905513603516
  45    -0.039188792300461
  46    -0.065316021379365
  47      0.11749621143364
  48      0.15845447503032
  49    -7.2806241363919e-05
  50     0.098790579971908
  51     0.055760327142497
  52    0.00012333675298668
  53    -0.019022532818734
  54      0.03919975322107
  55     -0.16257337100674
  56      0.30855943008846
  57      0.27746305457406
  58    6.6916496190964e-05
  59    -0.034360006254711
  60    1.3759594891222e-05
  61    -1.9311246755292e-05
  62    0.0087247251003823
  63    -1.8178165263117e-06
  64    -0.026679838938047
  65    -0.012581456623882
  66    -0.026684072628313
  67    -0.012586227798002
  68    -0.026679471635547
  69    -0.012579339783894
  70    -0.026678751887436
  71    -0.012574885554947
  72     0.037296240777789
  73     0.021988592885311
  74     0.037299273380013
  75     0.021988702155138
  76     0.096684156864402
  77     0.015958172073401