[Molden Format]
[Molpro variables]
_NUMVAR=  775.0000000000000    
_AVOGAD= 0.6022136736000000E+24
_BOLTZ= 0.1380658000000000E-22
_CLIGHT=  29979245800.00000    
_EV2006= 0.3674930886769165E-01
_EV= 0.3674932534394180E-01
_ENULL= 0.8854187817000000E-11
_KJOULE= 0.3808798324128737E-03
_KJOULE/MOL= 0.3808798324128737E-03
_CM= 0.4556335267302901E-05
_CM-1= 0.4556335267302901E-05
_DEB2SI= 0.3335641000000000E-29
_AMU2AU=  1822.888390000000    
_KCAL= 0.1593601117815568E-02
_KCAL/MOL= 0.1593601117815568E-02
_KELVIN2006= 0.3166828861084835E-05
_KELVIN= 0.3166814820820034E-05
_JOULE= 0.4359748200000000E-17
_HERTZ2006= 0.1519829850815779E-15
_HERTZ= 0.1519829846011223E-15
_HZ2006= 0.1519829850815779E-15
_HZ= 0.1519829846011223E-15
_JPCAL=  4.184000000000000    
_PLANCK= 0.6626075540000000E-33
_TOA2006= 0.5291772490000000    
_TOA= 0.5291772090000000    
_TOANG2006= 0.5291772490000000    
_TOANG= 0.5291772090000000    
_TORAD= 0.1745329251994330E-01
_TOCM=  219474.6306700000    
_TODEBYE=  2.541580000000000    
_TOEV2006=  27.21139610000000    
_TOE= 0.4803242000000000E-09
_TOEV=  27.21138390000000    
_TOHERTZ2006=  6579683899900000.    
_TOHERTZ=  6579683920700000.    
_TOHZ2006=  6579683899900000.    
_TOHZ=  6579683920700000.    
_TOK2006=  315773.3000000000    
_TOK=  315774.7000000000    
_TOKCAL=  627.5096000000000    
_TOKELVIN2006=  315773.3000000000    
_TOKELVIN=  315774.7000000000    
_TOKJ=  2625.500000000000    
_TOKJOULE=  2625.500000000000    
_TOKG= 0.1660565586000000E-26
_ANG2006=  1.889725988578923    
_ANG=  1.889726131421507    
_ANGSTROM2006=  1.889725988578923    
_ANGSTROM=  1.889726131421507    
_RPAREF=  0.000000000000000    
_RPADISS=  0.000000000000000    
_IGNORE_UNDEF=  2.000000000000000    
_STRICTCHECK=  0.000000000000000    
_SEW_ONEEL=  0.000000000000000    
_CPPDONE=FALSE
_DKROLL_DONE=  0.000000000000000    
_FOCKDONE=TRUE
_GRADONE=FALSE
_HESSDONE=FALSE
_INTDONE=TRUE
_SCFDONE=TRUE
_MODUL_CUDA=FALSE
_MODUL_SLATER=FALSE
_MODUL_MRCC=FALSE
_MODUL_NBO6=FALSE
_MODUL_NECI=TRUE
_MRCC_EXEC=
_FITC_AO_SAVED=FALSE
_FITC_MO_SAVED=FALSE
_SHARED_FS=TRUE
_LSTYP=SEWARD
_INTYP=INTS
_GEOMTYP=ZMAT
_GRADTYP=ALASKA
_DIRECT=FALSE
_DKROLL=FALSE
_DKHO= -1.000000000000000    
_DKHP= -1.000000000000000    
_SYNCM=  0.000000000000000    
_DFTNAME=  0.000000000000000    
_DFTFUNC=  0.000000000000000    
_BASIS=6-31G
_BASISSETS=
_ZSIGNX=
_ZSIGNY=
_ZSIGNZ=
_ZCENTRE=
_ZSYMEL=
_ZPLANE=
_ZUNIT=ANG
_ZORIENT=  1.000000000000000    
_CHARGE=  1.000000000000000    
_SCFCHARGE=  1.000000000000000    
_MCCHARGE=  1.000000000000000    
_CICHARGE=  1.000000000000000    
_CCCHARGE=  1.000000000000000    
_NELEC=  24.00000000000000    
!NELEC=  24.00000000000000    
_SCFNELEC=  24.00000000000000    
_MCNELEC=  24.00000000000000    
_CINELEC=  24.00000000000000    
_CCNELEC=  24.00000000000000    
_SPIN=  24.00000000000000    
!SPIN=  0.000000000000000    
_SCFSPIN=  0.000000000000000    
_MCSPIN=  0.000000000000000    
_CISPIN=  0.000000000000000    
_CCSPIN=  0.000000000000000    
_STATE=  0.000000000000000    
_SCFSTATE=  0.000000000000000    
_MCSTATE=  0.000000000000000    
_CISTATE=  0.000000000000000    
_SYMMETRY=  0.000000000000000    
!SYMMETRY=  0.000000000000000    
_SCFSYMMETRY=  0.000000000000000    
_MCSYMMETRY=  0.000000000000000    
_CISYMMETRY=  0.000000000000000    
_CCSYMMETRY=  0.000000000000000    
_SCFSYMM=  0.000000000000000    
_MCSYMM=  0.000000000000000    
_CISYMM=  0.000000000000000    
_CCSYMM=  0.000000000000000    
_SCFSYM=  0.000000000000000    
_MCSYM=  0.000000000000000    
_CISYM=  0.000000000000000    
_CCSYM=  0.000000000000000    
_WEIGHT=  0.000000000000000    
_MCWEIGHT=  0.000000000000000    
_LQUANT=  0.000000000000000    
_MCLQUANT=  0.000000000000000    
_OPTCONV=  0.000000000000000    
_QSDSTEP=  0.000000000000000    
_QSDIRC=  0.000000000000000    
_PROGRAM=MULTI
_CPUSTEP=  1.220000000000000    
_SYSSTEP= 0.9999999999999999E-01
_WALLSTEP=  1.390000000000000    
!PERT=  1.390000000000000    
!DFMP2=  1.390000000000000    
!DFSCF=  0.000000000000000    
!DFHFENERG=  0.000000000000000    
!SCSGRD=  0.000000000000000    
_ATCHARGE=  0.000000000000000    
_BASINP=  610.0000000000000    
_CARTESIAN=TRUE
_CFIT=TRUE
_CFIT_FRED=TRUE
_CFIT_FRED_THR=TRUE
_CHII2=TRUE
_CHIRS=TRUE
_COEFF=TRUE
_CPU2IDX_CFIT=TRUE
_CPU3IDX_CFIT=TRUE
_CPUASMBL_CFIT=TRUE
_CPUBLAS1=TRUE
_CPUBLAS2=TRUE
_CPUBLAS3=TRUE
_CPUINT_DTRAF=TRUE
_CPUSOLVE_CFIT=TRUE
_CPUTOT=  1.280000000000000    
_CPUTR1_CFIT=  1.280000000000000    
_CPUTR2_CFIT=  1.280000000000000    
_CPUINV_CFIT=  1.280000000000000    
_CPUFIT_CFIT=  1.280000000000000    
_CPUTRANS_CFIT=  1.280000000000000    
_CPUSCREEN_CFIT=  1.280000000000000    
_CPUTRANS_DTRAF=  1.280000000000000    
_CPUTRA_DTRAF=  1.280000000000000    
_CPUTRIPL=  1.280000000000000    
_SYSTRIPL=  1.280000000000000    
_WALLTRIPL=  1.280000000000000    
_CPUCCSD=  1.280000000000000    
_SYSCCSD=  1.280000000000000    
_WALLCCSD=  1.280000000000000    
_CPUSORT=  1.280000000000000    
_SYSSORT=  1.280000000000000    
_WALLSORT=  1.280000000000000    
_CPUF12=  1.280000000000000    
_SYSF12=  1.280000000000000    
_WALLF12=  1.280000000000000    
_CPUF12B=  1.280000000000000    
_SYSF12B=  1.280000000000000    
_WALLF12B=  1.280000000000000    
_CPUTRANS=  1.280000000000000    
_SYSTRANS=  1.280000000000000    
_WALLTRANS=  1.280000000000000    
_CPU2EXT=  1.280000000000000    
_CPU3EXT=  1.280000000000000    
_CPU4EXT=  1.280000000000000    
_WALL2EXT=  1.280000000000000    
_WALL3EXT=  1.280000000000000    
_WALL4EXT=  1.280000000000000    
_DALTON=  1.280000000000000    
_DARW=  1.280000000000000    
_DECAY=  1.280000000000000    
_DELE_CFIT=  1.280000000000000    
_DELG_CFIT=  1.280000000000000    
_DELTA=  1.280000000000000    
_DFTEXFAC=  1.000000000000000    
_DFTFAC=  1.000000000000000    
_DFTFUN=  1.000000000000000    
_DFTFUNS=  1.000000000000000    
_DMEX=  1.000000000000000    
_DMEY=  1.000000000000000    
_DMEZ=  1.000000000000000    
_DMNX=  1.000000000000000    
_DMNY=  1.000000000000000    
_DMNZ=  1.000000000000000    
_DMSCF=  1.000000000000000    
_DMSCF_Efield=  1.000000000000000    
_DMSCF_I=  1.000000000000000    
_DMSCF_J=  1.000000000000000    
_DMSCF_K=  1.000000000000000    
_DMSCF_N1=  1.000000000000000    
_DMSCF_N2=  1.000000000000000    
_DMSCF_NUC=  1.000000000000000    
_DMSCF_T=  1.000000000000000    
_DMSCF_V=  1.000000000000000    
_DMX=  0.000000000000000    
_DMY=  0.000000000000000    
_DMZ=-0.1448432535659717    
_DMX_SCF=  0.000000000000000    
_DMY_SCF=  0.000000000000000    
_DMZ_SCF=-0.2502355910159515    
_DMZCOR=-0.2502355910159515    
_DM_RHO1=-0.2502355910159515    
_DM_RVAL=-0.2502355910159515    
_DUMMYATOMS=-0.2502355910159515    
_FREQUENCIES=-0.2502355910159515    
_EDISP=-0.2502355910159515    
_EEDISP=-0.2502355910159515    
_EINTRA=-0.2502355910159515    
_EINTRA_R12=-0.2502355910159515    
_EINTER_R12=-0.2502355910159515    
_EHOMO=-0.4957003671066739    
_EIONIC=-0.4957003671066739    
_ELUMO=-0.6579254183446540E-01
_EMP2=-0.6579254183446540E-01
_EMP2_SING=-0.6579254183446540E-01
_EMP2_TRIP=-0.6579254183446540E-01
_EMP2_SINGLES=-0.6579254183446540E-01
_EMP2_SINGLES_D=-0.6579254183446540E-01
_EMP2_SCS=-0.6579254183446540E-01
_EMP2_STRONG=-0.6579254183446540E-01
_EMP2_CLOSE=-0.6579254183446540E-01
_EMP2_WEAK=-0.6579254183446540E-01
_EMP2_DIST=-0.6579254183446540E-01
_ECSING=-0.6579254183446540E-01
_ECTRIP=-0.6579254183446540E-01
_ECSINGLES=-0.6579254183446540E-01
_EF12=-0.6579254183446540E-01
_EF12_SING=-0.6579254183446540E-01
_EF12_TRIP=-0.6579254183446540E-01
_ECSING_F12=-0.6579254183446540E-01
_ECTRIP_F12=-0.6579254183446540E-01
_EF12_RHFRELAX=-0.6579254183446540E-01
_EF12_RHFRELAX_C=-0.6579254183446540E-01
_EF12_CONVSUPPRS=-0.6579254183446540E-01
_EF12_CONVSUPPRT=-0.6579254183446540E-01
_EF12_SINGLES=-0.6579254183446540E-01
_EF12_SINGLES_C=-0.6579254183446540E-01
_EF12_SCS=-0.6579254183446540E-01
_EF12_STRONG=-0.6579254183446540E-01
_EF12_CLOSE=-0.6579254183446540E-01
_EF12_WEAK=-0.6579254183446540E-01
_EF12_DIST=-0.6579254183446540E-01
_EF12S=-0.6579254183446540E-01
_EF12S_SING=-0.6579254183446540E-01
_EF12S_TRIP=-0.6579254183446540E-01
_EF12S_SCS=-0.6579254183446540E-01
_EF12S_STRONG=-0.6579254183446540E-01
_EF12S_CLOSE=-0.6579254183446540E-01
_EF12S_WEAK=-0.6579254183446540E-01
_EF12S_DIST=-0.6579254183446540E-01
_EF12D=-0.6579254183446540E-01
_EF12D_SING=-0.6579254183446540E-01
_EF12D_TRIP=-0.6579254183446540E-01
_EF12D_SCS=-0.6579254183446540E-01
_EF12D_STRONG=-0.6579254183446540E-01
_EF12D_CLOSE=-0.6579254183446540E-01
_EF12D_WEAK=-0.6579254183446540E-01
_EF12D_DIST=-0.6579254183446540E-01
_EF12F=-0.6579254183446540E-01
_EF12F_SING=-0.6579254183446540E-01
_EF12F_TRIP=-0.6579254183446540E-01
_EF12F_SCS=-0.6579254183446540E-01
_EF12F_STRONG=-0.6579254183446540E-01
_EF12F_CLOSE=-0.6579254183446540E-01
_EF12F_WEAK=-0.6579254183446540E-01
_EF12F_DIST=-0.6579254183446540E-01
_EMP2R12_2AD=-0.6579254183446540E-01
_EMP2R12_2A=-0.6579254183446540E-01
_EMP2R12_2AP=-0.6579254183446540E-01
_EMP2R12_2SAD=-0.6579254183446540E-01
_EMP2R12_2SA=-0.6579254183446540E-01
_EMP2R12_2SAP=-0.6579254183446540E-01
_EMP2R12_2B=-0.6579254183446540E-01
_EMP2_R12=-0.6579254183446540E-01
_EMP2_R12_A=-0.6579254183446540E-01
_EMP2_R12_AP=-0.6579254183446540E-01
_EMP2_R12_AD=-0.6579254183446540E-01
_EMP2_R12_2A=-0.6579254183446540E-01
_EMP2_R12_2SA=-0.6579254183446540E-01
_EMP2_R12_2SAP=-0.6579254183446540E-01
_EMP2_R12_2SAD=-0.6579254183446540E-01
_EMP2_R12_2AP=-0.6579254183446540E-01
_EMP2_R12_DIAG=-0.6579254183446540E-01
_EMP2_R12_STRONG=-0.6579254183446540E-01
_EMP2_R12_CLOSE=-0.6579254183446540E-01
_EMP2_R12_WEAK=-0.6579254183446540E-01
_EMP2_R12_DIST=-0.6579254183446540E-01
_EMP2_R12_SING=-0.6579254183446540E-01
_EMP2_R12_TRIP=-0.6579254183446540E-01
_EMP2_R12_SCS=-0.6579254183446540E-01
_EMP2R=-0.6579254183446540E-01
_EMP3=-0.6579254183446540E-01
_EMP3R=-0.6579254183446540E-01
_EMP4=-0.6579254183446540E-01
_ENERGC=-0.6579254183446540E-01
_ENERGCL=-0.6579254183446540E-01
_ENERG_CC=-0.6579254183446540E-01
_ENERG_CV=-0.6579254183446540E-01
_ENERG_VV=-0.6579254183446540E-01
_ENERGD=-0.6579254183446540E-01
_ENERGD0=-0.6579254183446540E-01
_ENERGD1=-0.6579254183446540E-01
_ENERGD2=-0.6579254183446540E-01
_ENERGD3=-0.6579254183446540E-01
_ENERGD4=-0.6579254183446540E-01
_ENERGP=-0.6579254183446540E-01
_ENERGP0=-0.6579254183446540E-01
_ENERGP1=-0.6579254183446540E-01
_ENERGP2=-0.6579254183446540E-01
_ENERGP3=-0.6579254183446540E-01
_ENERGP4=-0.6579254183446540E-01
_ENERGR=-0.6579254183446540E-01
_ENERGRR=-0.6579254183446540E-01
_ENERGS=-0.6579254183446540E-01
_ENERGT=-0.6579254183446540E-01
_ENERGU=-0.6579254183446540E-01
_ENERGW=-0.6579254183446540E-01
_ENERGY= -224.3928224113208    
_ECORR= -224.3928224113208    
_ECORR_SZABO= -224.3928224113208    
_ECORR_TILDE= -224.3928224113208    
_ECORR_ACFDT= -224.3928224113208    
_ECORR_ACFDX= -224.3928224113208    
_ECORR_DBAR= -224.3928224113208    
_ECORR_DBAX= -224.3928224113208    
_ECORR_RCCD= -224.3928224113208    
_ECORR_DRCCD= -224.3928224113208    
_ECORR_SOSEX= -224.3928224113208    
_ECORR_PLASM= -224.3928224113208    
_ECORR_LOGM= -224.3928224113208    
_ECORR_LSOX= -224.3928224113208    
_ECORR_LRPA= -224.3928224113208    
_ENERGY_MP= -224.3928224113208    
_ECBS= -224.3928224113208    
_ECBSD= -224.3928224113208    
_ENUC=  68.84341627836902    
_EPDIST=  68.84341627836902    
_EPDIST_SING=  68.84341627836902    
_EPDIST_TRIP=  68.84341627836902    
_EPDIST_R12=  68.84341627836902    
_EPDIST_SING_R12=  68.84341627836902    
_EPDIST_TRIP_R12=  68.84341627836902    
_EPSUM=  68.84341627836902    
_EPSUM_R12=  68.84341627836902    
_EPS1=  68.84341627836902    
_EPS2=  68.84341627836902    
_EPS3=  68.84341627836902    
_EPS4=  68.84341627836902    
_EPS5=  68.84341627836902    
_EPS6=  68.84341627836902    
_EPS7=  68.84341627836902    
_EPS8=  68.84341627836902    
_EREL=  68.84341627836902    
_FLOPBLAS1=  68.84341627836902    
_FLOPBLAS2=  68.84341627836902    
_FLOPBLAS3=  68.84341627836902    
_FLOPDGM=  68.84341627836902    
_FLOPDGV=  68.84341627836902    
_FLOPMXM=  68.84341627836902    
_FLOPMXV=  68.84341627836902    
_FREQSTEP=  68.84341627836902    
!RS2GRSTATE=  68.84341627836902    
!RS2GRSYM=  68.84341627836902    
_GRADENERG=  68.84341627836902    
_GRADEXFAC=  9999.000000000000    
_GRADMETHOD=TRUE
_NMRMETHOD=  0.000000000000000    
_GRADRECORD=  0.000000000000000    
_VIRIAL=  0.000000000000000    
_GRADX=  0.000000000000000    
_GRADY=  0.000000000000000    
_GRADZ=  0.000000000000000    
_GRADVAR=  0.000000000000000    
_GRID=  0.000000000000000    
_GRID_FREEZE=  0.000000000000000    
!GRID_FREEZE= -1.000000000000000    
!GRIDREC= -1.000000000000000    
_GRID_WEIGHT_CUT= -1.000000000000000    
_GRID_BLOCKSIZE= -1.000000000000000    
_GRID_SPARSITY= -1.000000000000000    
_GRID_RMAX= -1.000000000000000    
_GTOTAL= -1.000000000000000    
_HDIA= -1.000000000000000    
_HDIACI= -1.000000000000000    
_HEAT= -1.000000000000000    
_HTOTAL= -1.000000000000000    
_INCR_CORR= -1.000000000000000    
_INCR_COUNT= -1.000000000000000    
_INCR_READY= -1.000000000000000    
_ISCHI= -1.000000000000000    
_ITERATIONS=  3.000000000000000    
!INTCACHE=  3.000000000000000    
_KFIT=  3.000000000000000    
_LASTNELEC=  18.00000000000000    
_LASTSPIN=  0.000000000000000    
_LASTSYM=  1.000000000000000    
_LL=  1.000000000000000    
_MASSV=  1.000000000000000    
_MIN_ITER=  1.000000000000000    
_MIXANG=  1.000000000000000    
_MIXANGCI=  1.000000000000000    
_MPP_PROG=  0.000000000000000    
_MSENERGY=  0.000000000000000    
_NACME=  0.000000000000000    
_NBAS_CFIT=  0.000000000000000    
_NEWREC=  0.000000000000000    
_NGRID=  0.000000000000000    
_NPROC_MPP=  1.000000000000000    
_NPROC_MPPX=  1.000000000000000    
_NPROC_SMP=  1.000000000000000    
_NUMSTEP=  0.000000000000000    
_OPNUC=  0.000000000000000    
_OPTCONVMX=  0.000000000000000    
_OPTCONVRMS=  0.000000000000000    
_OPTGRAD=  0.000000000000000    
_OPTGRADMX=  0.000000000000000    
_OPTGRADRMS=  0.000000000000000    
_OPTRMSMAX=  0.000000000000000    
_OPTSTEP=  0.000000000000000    
_ORBITAL=  2140.200000000000    
_PAOINT_CFIT=  2140.200000000000    
_PENALTY=  2140.200000000000    
_PH1INT_CFIT=  2140.200000000000    
_PH1VEC_CFIT=  2140.200000000000    
_PH2INT_CFIT=  2140.200000000000    
_PHASE=  2140.200000000000    
_PI=  3.141592653589793    
_PMOINT_CFIT=  3.141592653589793    
_PMOVEC_CFIT=  3.141592653589793    
_POISSON_ECORR=  3.141592653589793    
_POISSON_ERROR=  3.141592653589793    
_POLXX=  3.141592653589793    
_POLXY=  3.141592653589793    
_POLXZ=  3.141592653589793    
_POLYY=  3.141592653589793    
_POLYZ=  3.141592653589793    
_POLZZ=  3.141592653589793    
_POLYX=  3.141592653589793    
_POLZX=  3.141592653589793    
_POLZY=  3.141592653589793    
_POVINT_CFIT=  3.141592653589793    
_ROOT=  3.141592653589793    
_RPDIST=  3.141592653589793    
_RPMIN=  3.141592653589793    
_RPMAX=  3.141592653589793    
_EPCON=  3.141592653589793    
_ECDIAG=  3.141592653589793    
_EPDIAG=  3.141592653589793    
!MCACT=  5.000000000000000    
!MCCLOSED=  0.000000000000000    
!MCFREEZE=  2.000000000000000    
!MCMS2=  0.000000000000000    
!MCNEL=  18.00000000000000    
!MCNSTSYM=  1.000000000000000    
!MCSTATE=  1.000000000000000    
!MCSYM=  1.000000000000000    
!MCWEIGHT=  1.000000000000000    
_SEIG_MIN= 0.2109682158364858E-01
_SEWPROP=TRUE
_SMAT=TRUE
_SMATCI=TRUE
_SSQUARED=TRUE
_STATUS=  1.000000000000000    
_SYSBLAS1=  1.000000000000000    
_SYSBLAS2=  1.000000000000000    
_SYSBLAS3=  1.000000000000000    
_SYSTEM_RC=  1.000000000000000    
_SYSTOT= 0.1200000000000000    
_T1DIAG= 0.1200000000000000    
_D1DIAG= 0.1200000000000000    
_TASK= 0.1200000000000000    
_TROV= 0.1200000000000000    
_HMAT= 0.1200000000000000    
_UMAT= 0.1200000000000000    
_UMATCI= 0.1200000000000000    
_VERSION=  2012001.000000000    
_WALLBLAS1=  2012001.000000000    
_WALLBLAS2=  2012001.000000000    
_WALLBLAS3=  2012001.000000000    
_WALLTOT=  1.490000000000000    
_ZPE=  1.490000000000000    
!DFBASIS_COUL=  1.490000000000000    
!DFBASIS_EXCH=  1.490000000000000    
!DFBASIS_MP2=  1.490000000000000    
!DFBASIS_MC=  1.490000000000000    
!DFBASIS_F12K=  1.490000000000000    
!DFBASIS_CCSD=  1.490000000000000    
!RIBASIS_MP2=  1.490000000000000    
!RIBASIS_EXCH=  1.490000000000000    
_DATE=10-Feb-22
_LASTORB=MCSCF
_MACHINE=Darwin-21.3.0/unixbased10(x86_64) 64 bit serial version
_METHODC=
_METHODT=
_OUTPUT=/Users/jeremycoe/GreerMCCI/V4mcci/LatestHPC6codeOutputDensityFasterTestImac21/testConvertFromBitwise/O3Casscf/dealWithFrozen/O3_CAS_Froz.xml
_PGROUP=C2v
_SEMI=
_TIME=11:11:41
_ANSATZ=
_LIBMOL=/Users/jeremycoe/MOLPRO/2012/OSX/SRC/lib/
_VDIAG=
_UDIAG=
!AOINTADDSC=
_TRANSFORM_FORCE=
_SOLVE_ITER=
_VSCF_FREQ=
_VMCSCF_FREQ=
_VCI_FREQ=
_VMP2_FREQ=
_VSCF_INTENS=
_VMCSCF_INTENS=
_VCI_INTENS=
_VMP2_INTENS=
_VIB_PROG=
!EREF=
!VIBCNT=  0.000000000000000    
!RGHFCNT=  0.000000000000000    
!SURFREC=  0.000000000000000    
!POLYREC=  0.000000000000000    
!DIPREC=  0.000000000000000    
!VSCFREC=  0.000000000000000    
!VCIREC=  0.000000000000000    
!PVCIREC=  0.000000000000000    
!VMP2REC=  0.000000000000000    
!VMCSCFREC=  0.000000000000000    
!VMRCIREC=  0.000000000000000    
!VIBINFO=  0.000000000000000    
!GAREC=  0.000000000000000    
!SCFORB=  21002.00000000000    
!MCORB=  21402.00000000000    
!CIOCC=  21402.00000000000    
!CICORE=  21402.00000000000    
!CICLOS=  21402.00000000000    
!UNO_OCC=  21402.00000000000    
!UNO_CLOSED=  21402.00000000000    
!CINSTSYM=  21402.00000000000    
!CIISTSYM=  21402.00000000000    
!CIISTMS2=  21402.00000000000    
!CIISTNEL=  21402.00000000000    
!CIMS2=  21402.00000000000    
!NEWMOL= -1.000000000000000    
!NEWSYM= -1.000000000000000    
!NEWORIENT= -1.000000000000000    
_SLFILES=slscratch
_NGSSTO=  9.000000000000000    
_SIN=SIN
_COS=COS
_TAN=TAN
_ACOS=ACOS
_ASIN=ASIN
_ATAN=ATAN
_COSH=COSH
_SINH=SINH
_TANH=TANH
_ABS=ABS
_MOD=MOD
_ERF=ERF
_REFC=REFC
_ERFC=ERFC
_HYPOT=HYPOT
_J0=J0
_J1=J1
_JN=JN
_GAMMA=GAMMA
_LGAMMA=LGAMMA
_Y0=Y0
_Y1=Y1
_YN=YN
_EXP=EXP
_LOG=LOG
_LOG10=LOG10
_SQRT=SQRT
_INT=INT
_NINT=NINT
_MAX=MAX
_MIN=MIN
_COSMO=  0.000000000000000    
_COSMOIT=  0.000000000000000    
_COSMOES=  0.000000000000000    
_COSMOEDS=  0.000000000000000    
_COSMOEC=  0.000000000000000    
_COSMOEDCORR=  0.000000000000000    
_FEPSI=  1.000000000000000    
_SL_IsMM=  0.000000000000000    
_SL_NSYM=  4.000000000000000    
_SL_System_BitSw=  0.000000000000000    
_SL_Unique_atoms=  0.000000000000000    
_SL_Last_energy=  0.000000000000000    
_SL_GRAD=  0.000000000000000    
_SL_MAXUPD_Hess=  5.000000000000000    
_SL_N_PRINT_COD=  5.000000000000000    
_SL_PRINT_CODES=  0.000000000000000    
_SL_BasType=  0.000000000000000    
_SL_Energy_Pred=  0.000000000000000    
_SL_New_Coords=  0.000000000000000    
_SL_Total_Nuclea=  0.000000000000000    
_SL_Highest_Mltp=  0.000000000000000    
_SL_Ref_Geom=  0.000000000000000    
_SL_Symmetry_ope=  1.000000000000000    
_SL_agrad=  0.000000000000000    
_SL_GrdMax=  0.000000000000000    
_SL_GrdNorm=  0.000000000000000    
_SL_GrdRMS=  0.000000000000000    
_CONFIG=  0.000000000000000    
_OCC=  0.000000000000000    
_CORE=  0.000000000000000    
_CLOSED=  0.000000000000000    
_SCFOCC=  0.000000000000000    
_SCFCLOSED=  0.000000000000000    
_SCFCORE=  0.000000000000000    
_MCOCC=  0.000000000000000    
_MCCLOSED=  0.000000000000000    
_MCFROZEN=  0.000000000000000    
_MCCORE=  0.000000000000000    
_CIOCC=  0.000000000000000    
_CICLOSED=  0.000000000000000    
_CICORE=  0.000000000000000    
_CCOCC=  0.000000000000000    
_CCCLOSED=  0.000000000000000    
_CCCORE=  0.000000000000000    
_SRXC=  0.000000000000000    
_SRC=  0.000000000000000    
_SRX=  0.000000000000000    
_SRH=  0.000000000000000    
_E_EXCHANGE=  0.000000000000000    
!LATTICE= -1.000000000000000    
!NEWLATTICE=  0.000000000000000    
!LATGRAD_VAR=FALSE
!SEW_LATTICE=  1.000000000000000    
_LATGRADX=  1.000000000000000    
_LATGRADY=  1.000000000000000    
_LATGRADZ=  1.000000000000000    
!SCALTABINIT=  1.000000000000000    
!LOCAL=  0.000000000000000    
!SAVEOCC=  0.000000000000000    
!SAVEDOM= -1.000000000000000    
!RESTDOM= -1.000000000000000    
!SAVEDOM_HF= -1.000000000000000    
!RESTDOM_HF= -1.000000000000000    
!HESSREC=  0.000000000000000    
!FREQREC=  0.000000000000000    
!NMODREC=  0.000000000000000    
!GTASKS=  0.000000000000000    
!HTASKS=  0.000000000000000    
!THRCHG= 0.1000000000000000    
!DEBUG= -1.000000000000000    
!CFIT_CPHF=  0.000000000000000    
!RDOMAUX_CPHF=  3.000000000000000    
!THRAO_CPHF= 0.1000000000000000E-09
!THRMO_CPHF= 0.1000000000000000E-08
!THROV_CPHF= 0.1000000000000000E-11
!THRSW_CPHF= 0.1000000000000000E-09
!THRPROD_CPHF= 0.1000000000000000E-08
!THRAOPR_CPHF= 0.1000000000000000E-11
!CFIT_SCFGRD=  0.000000000000000    
!RDOMAUX_SCFGRD=  5.000000000000000    
!THRAO_SCFGRD= 0.1000000000000000E-09
!THRMO_SCFGRD= 0.1000000000000000E-08
!THROV_SCFGRD= 0.1000000000000000E-11
!THRSW_SCFGRD= 0.1000000000000000E-09
!THRPROD_SCFGRD= 0.1000000000000000E-08
!THRAOPR_SCFGRD= 0.1000000000000000E-11
!LOCFIT_SCF=  0.000000000000000    
!LOCFIT_MP2= -1.000000000000000    
_RIDOM=  0.000000000000000    
_FCI_METHOD=  0.000000000000000    
!CC2_METHOD=  0.000000000000000    
_BASIS2006=FALSE
_SVDDEL= -1.000000000000000    
_SVDDELA= -1.000000000000000    
_SVDDELP= -1.000000000000000    
_SVDDELF= -1.000000000000000    
_SVDDELS= -1.000000000000000    
_SVDDEL_ABS= -1.000000000000000    
_SVDDELA_ABS= -1.000000000000000    
_SVDDELP_ABS= -1.000000000000000    
_SVDDELF_ABS= -1.000000000000000    
_SVDDELS_ABS= -1.000000000000000    
_MAXBASIS=  0.000000000000000    
!OPT_CONICAL=  0.000000000000000    
!CLEARSP_JGRID=  0.000000000000000    
_SHLDTENSOR=  0.000000000000000    
_SHLDTENSORDIA=  0.000000000000000    
_SHLDTENSORPARA=  0.000000000000000    
_OMEGAF_S=  0.000000000000000    
_OMEGAF_T=  0.000000000000000    
_DIPMOM_GS=  0.000000000000000    
_DIPMOM_GS_REL=  0.000000000000000    
_DIPMOM_SING=  0.000000000000000    
_DIPMOM_SING_REL=  0.000000000000000    
_DIPMOM_TRIP=  0.000000000000000    
_DIPMOM_TRIP_REL=  0.000000000000000    
_4EXT_NDISKS=  1.000000000000000    
_RE=  1.000000000000000    
_BE=  1.000000000000000    
_AE=  1.000000000000000    
_WE=  1.000000000000000    
_WEXE=  1.000000000000000    
_WEYE=  1.000000000000000    
_METHOD=  1.000000000000000    
_C0=  1.000000000000000    
_C0R=  1.000000000000000    
_REGRESSION_SLOPE=  1.000000000000000    
_REGRESSION_INTERCEPT=  1.000000000000000    
_LOWERBOUNDMIN_SLOPE=  1.000000000000000    
_LOWERBOUNDMIN_INTERCEPT=  1.000000000000000    
_UPPERBOUNDMIN_SLOPE=  1.000000000000000    
_UPPERBOUNDMIN_INTERCEPT=  1.000000000000000    
_LOWERBOUNDMAX_SLOPE=  1.000000000000000    
_LOWERBOUNDMAX_INTERCEPT=  1.000000000000000    
_UPPERBOUNDMAX_SLOPE=  1.000000000000000    
_UPPERBOUNDMAX_INTERCEPT=  1.000000000000000    
!ZMP=  0.000000000000000    
_MAXIT_ZMP=  500.0000000000000    
_MAXDIS_ZMP=  100.0000000000000    
_ACCU_ZMP=  14.00000000000000    
_SHIFTA_ZMP= -100.0000000000000    
!EMBEDFLAG=  1.000000000000000    
!EMBED=FALSE
!EMBED_F12=FALSE
!EMBEDNUC=  0.000000000000000    
_EMBEDENERGY=  0.000000000000000    
_KSPACETIME=  0.000000000000000    
_RSPACETIME=  0.000000000000000    
!EMBED_DFC=FALSE
!NUM_VOIDS=  0.000000000000000    
_IBODY=  0.000000000000000    
_EMBE_TOTAL=  0.000000000000000    
_EMBE_HF=  0.000000000000000    
_EMBE_CORR=  0.000000000000000    
!EDFT=  0.000000000000000    
_IFASTLATGRAD=  0.000000000000000    
_SINDEX=  0.000000000000000    
_F3SIZE=  0.000000000000000    
_F4SIZE=  0.000000000000000    
_AVDOM=  0.000000000000000    
_AVDOMS=  0.000000000000000    
!CPP_PROG=  0.000000000000000    
_FCIQMC_ERR=  0.000000000000000    
R=  1.272760000000000    
THETA=  116.7542000000000    
GX1=  0.000000000000000    
GY1=-0.1110223024625157E-15
GZ1=-0.8407284720265006    
GX2=  0.000000000000000    
GY2=  2.048042352379725    
GZ2= 0.4203642360132502    
GX3=  0.000000000000000    
GY3= -2.048042352379725    
GZ3= 0.4203642360132502    
[Atoms] Angs
O     1    8         0.0000000000        0.0000000000       -0.4448943464
O     2    8         0.0000000000        1.0837773359        0.2224471732
O     3    8         0.0000000000       -1.0837773359        0.2224471732
[GTO]
  1 0
 s    6  1.00
  0.5484671700D+04  0.1831074396D-02
  0.8252349500D+03  0.1395017197D-01
  0.1880469600D+03  0.6844507786D-01
  0.5296450000D+02  0.2327143395D+00
  0.1689757000D+02  0.4701928990D+00
  0.5799635300D+01  0.3585208493D+00
 s    3  1.00
  0.1553961600D+02 -0.1107775519D+00
  0.3599933600D+01 -0.1480262626D+00
  0.1013761800D+01  0.1130767020D+01
 s    1  1.00
  0.2700058200D+00  0.1000000000D+01
 p    3  1.00
  0.1553961600D+02  0.7087426737D-01
  0.3599933600D+01  0.3397528370D+00
  0.1013761800D+01  0.7271585736D+00
 p    1  1.00
  0.2700058200D+00  0.1000000000D+01
  
  2 0
 s    6  1.00
  0.5484671700D+04  0.1831074396D-02
  0.8252349500D+03  0.1395017197D-01
  0.1880469600D+03  0.6844507786D-01
  0.5296450000D+02  0.2327143395D+00
  0.1689757000D+02  0.4701928990D+00
  0.5799635300D+01  0.3585208493D+00
 s    3  1.00
  0.1553961600D+02 -0.1107775519D+00
  0.3599933600D+01 -0.1480262626D+00
  0.1013761800D+01  0.1130767020D+01
 s    1  1.00
  0.2700058200D+00  0.1000000000D+01
 p    3  1.00
  0.1553961600D+02  0.7087426737D-01
  0.3599933600D+01  0.3397528370D+00
  0.1013761800D+01  0.7271585736D+00
 p    1  1.00
  0.2700058200D+00  0.1000000000D+01
  
  3 0
 s    6  1.00
  0.5484671700D+04  0.1831074396D-02
  0.8252349500D+03  0.1395017197D-01
  0.1880469600D+03  0.6844507786D-01
  0.5296450000D+02  0.2327143395D+00
  0.1689757000D+02  0.4701928990D+00
  0.5799635300D+01  0.3585208493D+00
 s    3  1.00
  0.1553961600D+02 -0.1107775519D+00
  0.3599933600D+01 -0.1480262626D+00
  0.1013761800D+01  0.1130767020D+01
 s    1  1.00
  0.2700058200D+00  0.1000000000D+01
 p    3  1.00
  0.1553961600D+02  0.7087426737D-01
  0.3599933600D+01  0.3397528370D+00
  0.1013761800D+01  0.7271585736D+00
 p    1  1.00
  0.2700058200D+00  0.1000000000D+01
 
 
[MO]
 Sym=      1.1
 Ene=     -20.8399
 Spin= Alpha
 Occup=    2.000000
1 0.99592197622346
2 0.022143643508094
3 -0.011187145960089
4 0.0
5 0.0
6 0.002233478079144
7 0.0
8 0.0
9 -0.003760819404200
10 0.001707459690315
11 -0.000409286332017
12 0.003676270038267
13 0.0
14 -0.000036056301832
15 -0.000015649085322
16 0.0
17 -0.001985121209606
18 -0.000615206881270
19 0.001707459690315
20 -0.000409286332017
21 0.003676270038267
22 0.0
23 0.000036056301832
24 -0.000015649085322
25 0.0
26 0.001985121209606
27 -0.000615206881270
 Sym=      1.3
 Ene=     -20.6933
 Spin= Alpha
 Occup=    2.000000
1 0.0
2 0.0
3 0.0
4 0.0
5 -0.000174999073237
6 0.0
7 0.0
8 0.002738906046039
9 0.0
10 0.70421694793019
11 0.015162105990874
12 -0.005925428067014
13 0.0
14 -0.001451889223542
15 -0.000710262790964
16 0.0
17 0.002192793419096
18 0.001189845545126
19 -0.70421694793019
20 -0.015162105990874
21 0.005925428067014
22 0.0
23 -0.001451889223542
24 0.000710262790964
25 0.0
26 0.002192793419096
27 -0.001189845545126
 Sym=      2.1
 Ene=     -20.6932
 Spin= Alpha
 Occup=    2.000000
1 -0.002419723733775
2 -0.000365127862148
3 0.003191570738022
4 0.0
5 0.0
6 -0.000008674456345
7 0.0
8 0.0
9 0.000587270996793
10 0.70419888207481
11 0.014526501745736
12 -0.004264361417108
13 0.0
14 -0.001185543779974
15 -0.000763441560338
16 0.0
17 0.001135758631110
18 0.000896446372592
19 0.70419888207481
20 0.014526501745736
21 -0.004264361417108
22 0.0
23 0.001185543779974
24 -0.000763441560338
25 0.0
26 -0.001135758631110
27 0.000896446372592
 Sym=      3.1
 Ene=      -1.5732
 Spin= Alpha
 Occup=    1.998453
1 -0.15610254851485
2 0.36434261855780
3 0.28247023034201
4 0.0
5 0.0
6 -0.11108076959793
7 0.0
8 0.0
9 -0.084027205268081
10 -0.11410553714009
11 0.26525266500414
12 0.22472128775594
13 0.0
14 0.021766190349199
15 -0.044633628614296
16 0.0
17 0.035362860679938
18 -0.011380023633650
19 -0.11410553714009
20 0.26525266500414
21 0.22472128775594
22 0.0
23 -0.021766190349199
24 -0.044633628614296
25 0.0
26 -0.035362860679938
27 -0.011380023633650
 Sym=      2.3
 Ene=      -1.3337
 Spin= Alpha
 Occup=    1.997628
1 0.0
2 0.0
3 0.0
4 0.0
5 0.085135320425798
6 0.0
7 0.0
8 -0.048538054502952
9 0.0
10 -0.16440040275482
11 0.38049734151609
12 0.41458346509694
13 0.0
14 0.041252954381680
15 0.007058630063212
16 0.0
17 0.010235941050527
18 -0.004854717586840
19 0.16440040275482
20 -0.38049734151609
21 -0.41458346509694
22 0.0
23 0.041252954381680
24 -0.007058630063212
25 0.0
26 0.010235941050527
27 0.004854717586840
 Sym=      4.1
 Ene=      -0.9808
 Spin= Alpha
 Occup=    1.996818
1 0.10190786482551
2 -0.26156008927853
3 -0.30755902319544
4 0.0
5 0.0
6 0.23849693339636
7 0.0
8 0.0
9 0.099394524801762
10 -0.096535381084423
11 0.22773430454344
12 0.25652901326700
13 0.0
14 -0.085114932887420
15 0.25169515826907
16 0.0
17 -0.072417337294855
18 0.14992150089002
19 -0.096535381084423
20 0.22773430454344
21 0.25652901326700
22 0.0
23 0.085114932887420
24 0.25169515826907
25 0.0
26 0.072417337294855
27 0.14992150089002
 Sym=      3.3
 Ene=      -0.6108
 Spin= Alpha
 Occup=    1.991262
1 0.0
2 0.0
3 0.0
4 0.0
5 0.14303570986340
6 0.0
7 0.0
8 0.13461732141586
9 0.0
10 0.016566299955119
11 -0.036234077351363
12 -0.12159561428212
13 0.0
14 0.23601789086820
15 -0.41906625535241
16 0.0
17 0.20107607377516
18 -0.24808322068954
19 -0.016566299955119
20 0.036234077351363
21 0.12159561428212
22 0.0
23 0.23601789086820
24 0.41906625535241
25 0.0
26 0.20107607377516
27 0.24808322068954
 Sym=      5.1
 Ene=      -0.8095
 Spin= Alpha
 Occup=    1.989445
1 -0.13175543594809
2 0.30877959352632
3 0.49711323166978
4 0.0
5 0.0
6 -0.018369531034640
7 0.0
8 0.0
9 0.026210819699587
10 0.069677014401741
11 -0.16811276385176
12 -0.28080693208048
13 0.0
14 -0.21630396911329